/*--------------------------------*- C++ -*----------------------------------*\
  =========                 |
  \\      /  F ield         | OpenFOAM: The Open Source CFD Toolbox
   \\    /   O peration     | Website:  https://openfoam.org
    \\  /    A nd           | Version:  7
     \\/     M anipulation  |
\*---------------------------------------------------------------------------*/
FoamFile
{
    version     2.0;
    format      ascii;
    class       volScalarField;
    location    "20000";
    object      epsilon;
}
// * * * * * * * * * * * * * * * * * * * * * * * * * * * * * * * * * * * * * //

dimensions      [0 2 -3 0 0 0 0];

internalField   nonuniform List<scalar> 
10981
(
4.16407e-06
3.87636e-06
4.08118e-06
4.2968e-06
3.0483e-06
3.62378e-06
4.30739e-06
3.76133e-06
4.45474e-06
2.37103e-06
2.76736e-06
3.36445e-06
3.44288e-06
4.8708e-06
3.42156e-06
4.75651e-06
1.82385e-06
2.15495e-06
2.53287e-06
2.57546e-06
3.61809e-06
3.24284e-06
5.4102e-06
2.97513e-06
5.00961e-06
1.40062e-06
1.68895e-06
1.87758e-06
1.98556e-06
2.56181e-06
2.45763e-06
3.65125e-06
2.84895e-06
5.61284e-06
2.43946e-06
5.2319e-06
1.0876e-06
1.32758e-06
1.4004e-06
1.56376e-06
1.81195e-06
1.89696e-06
2.39705e-06
2.31896e-06
3.44808e-06
2.17756e-06
5.39836e-06
1.9276e-06
5.55527e-06
8.62588e-07
1.05182e-06
1.06897e-06
1.24674e-06
1.31784e-06
1.49917e-06
1.6276e-06
1.86436e-06
2.14155e-06
2.01302e-06
3.10297e-06
1.44578e-06
5.02442e-06
1.52737e-06
5.75869e-06
7.01758e-07
8.45781e-07
8.42112e-07
1.00474e-06
9.98831e-07
1.20567e-06
1.17162e-06
1.50899e-06
1.4323e-06
1.78492e-06
1.88817e-06
1.49545e-06
2.81531e-06
9.38083e-07
4.66484e-06
1.2482e-06
5.56565e-06
5.85638e-07
6.93613e-07
6.85033e-07
8.20409e-07
7.89647e-07
9.83288e-07
8.94734e-07
1.23279e-06
1.03961e-06
1.54698e-06
1.27446e-06
1.5062e-06
1.72633e-06
9.75567e-07
2.64184e-06
6.64e-07
4.2468e-06
1.04668e-06
5.14696e-06
5.00116e-07
5.81066e-07
5.73579e-07
6.80653e-07
6.47831e-07
8.12713e-07
7.17854e-07
1.01736e-06
8.07479e-07
1.32259e-06
9.42866e-07
1.45659e-06
1.18547e-06
1.07283e-06
1.649e-06
6.32858e-07
2.4637e-06
5.13884e-07
3.76733e-06
8.90665e-07
4.64706e-06
4.35615e-07
4.96797e-07
4.92075e-07
5.74641e-07
5.47797e-07
6.81175e-07
5.98409e-07
8.48682e-07
6.59583e-07
1.12324e-06
7.46313e-07
1.35834e-06
8.90743e-07
1.15472e-06
1.1466e-06
6.98633e-07
1.57145e-06
4.41817e-07
2.24438e-06
4.20496e-07
3.28114e-06
7.68048e-07
4.14542e-06
3.8576e-07
4.32703e-07
4.30648e-07
4.93613e-07
4.74416e-07
5.79288e-07
5.13567e-07
7.1604e-07
5.58759e-07
9.52614e-07
6.1934e-07
1.23051e-06
7.13413e-07
1.1968e-06
8.67533e-07
7.92362e-07
1.10699e-06
4.63532e-07
1.46573e-06
3.34606e-07
2.00267e-06
3.55905e-07
2.82992e-06
6.72638e-07
3.66862e-06
3.46282e-07
3.8297e-07
3.83017e-07
4.30971e-07
4.187e-07
4.99866e-07
4.50559e-07
6.11288e-07
4.86083e-07
8.10097e-07
5.31409e-07
1.09121e-06
5.97363e-07
1.19212e-06
6.97413e-07
8.88212e-07
8.4308e-07
5.21476e-07
1.04847e-06
3.29027e-07
1.33812e-06
2.69191e-07
1.76366e-06
3.08963e-07
2.43268e-06
5.99289e-07
3.23204e-06
3.14312e-07
3.43524e-07
3.45103e-07
3.81789e-07
3.75069e-07
4.37383e-07
4.01994e-07
5.2816e-07
4.31289e-07
6.92699e-07
4.67088e-07
9.53899e-07
5.16162e-07
1.14466e-06
5.85364e-07
9.67929e-07
6.79882e-07
5.99756e-07
8.0558e-07
3.55134e-07
9.72901e-07
2.51513e-07
1.20325e-06
2.26152e-07
1.54327e-06
2.74147e-07
2.09521e-06
5.43258e-07
2.8544e-06
2.87858e-07
3.11575e-07
3.14205e-07
3.42495e-07
3.39958e-07
3.87641e-07
3.63374e-07
4.61707e-07
3.88392e-07
5.96826e-07
4.17962e-07
8.27174e-07
4.56284e-07
1.06488e-06
5.06815e-07
1.01811e-06
5.71561e-07
6.88198e-07
6.52863e-07
4.02276e-07
7.554e-07
2.59298e-07
8.88816e-07
2.03684e-07
1.07234e-06
1.96418e-07
1.34774e-06
2.48052e-07
1.81541e-06
4.98293e-07
2.56263e-06
2.65529e-07
2.85165e-07
2.8847e-07
3.10527e-07
3.11027e-07
3.47506e-07
3.31818e-07
4.08156e-07
3.53771e-07
5.18674e-07
3.79026e-07
7.15163e-07
4.10234e-07
9.65639e-07
4.48948e-07
1.03148e-06
4.95464e-07
7.75764e-07
5.50443e-07
4.65796e-07
6.16246e-07
2.83175e-07
6.97691e-07
2.02575e-07
8.03543e-07
1.72363e-07
9.50624e-07
1.75e-07
1.1784e-06
2.27372e-07
1.59132e-06
4.60551e-07
2.32656e-06
2.46334e-07
2.62906e-07
2.66607e-07
2.84035e-07
2.86671e-07
3.14629e-07
3.05421e-07
3.64539e-07
3.25079e-07
4.54901e-07
3.47231e-07
6.18965e-07
3.73559e-07
8.58984e-07
4.04547e-07
1.00765e-06
4.39472e-07
8.5044e-07
4.78125e-07
5.41714e-07
5.21824e-07
3.21376e-07
5.73382e-07
2.13801e-07
6.37343e-07
1.66906e-07
7.21161e-07
1.50593e-07
8.40663e-07
1.58572e-07
1.03654e-06
2.10283e-07
1.40877e-06
4.28188e-07
2.13037e-06
2.29539e-07
2.43805e-07
2.47698e-07
2.61696e-07
2.65768e-07
2.87297e-07
2.82883e-07
3.28639e-07
3.00763e-07
4.0263e-07
3.20594e-07
5.37879e-07
3.43479e-07
7.54271e-07
3.69284e-07
9.52285e-07
3.96664e-07
9.01216e-07
4.24869e-07
6.24267e-07
4.54665e-07
3.73314e-07
4.88025e-07
2.3523e-07
5.27662e-07
1.71515e-07
5.77402e-07
1.42855e-07
6.44267e-07
1.34393e-07
7.45425e-07
1.45365e-07
9.18827e-07
1.95849e-07
1.25678e-06
4.00382e-07
1.96263e-06
2.14612e-07
2.27125e-07
2.3106e-07
2.42536e-07
2.47517e-07
2.6422e-07
2.63287e-07
2.98727e-07
2.79737e-07
3.59545e-07
2.97792e-07
4.70256e-07
3.18176e-07
6.57524e-07
3.40438e-07
8.74811e-07
3.62845e-07
9.20629e-07
3.84247e-07
7.0506e-07
4.05064e-07
4.37434e-07
4.2685e-07
2.67081e-07
4.51562e-07
1.83818e-07
4.81493e-07
1.43753e-07
5.20229e-07
1.25427e-07
5.76017e-07
1.21718e-07
6.65055e-07
1.34494e-07
8.19692e-07
1.83628e-07
1.12712e-06
3.76907e-07
1.81271e-06
2.01144e-07
2.12328e-07
2.16198e-07
2.25827e-07
2.31322e-07
2.44439e-07
2.45971e-07
2.73491e-07
2.61245e-07
3.23731e-07
2.77897e-07
4.14138e-07
2.96429e-07
5.71781e-07
3.16218e-07
7.85719e-07
3.35335e-07
9.06553e-07
3.52308e-07
7.73883e-07
3.67251e-07
5.11142e-07
3.81474e-07
3.10475e-07
3.96623e-07
2.03563e-07
4.14351e-07
1.50843e-07
4.36836e-07
1.24117e-07
4.68615e-07
1.12113e-07
5.17591e-07
1.11499e-07
5.96642e-07
1.25477e-07
7.3476e-07
1.7351e-07
1.01328e-06
3.5717e-07
1.68001e-06
1.88828e-07
1.99003e-07
2.02731e-07
2.11027e-07
2.16744e-07
2.27223e-07
2.30437e-07
2.51932e-07
2.44732e-07
2.93706e-07
2.60244e-07
3.67567e-07
2.77364e-07
4.97928e-07
2.95408e-07
6.9424e-07
3.12355e-07
8.62478e-07
3.26488e-07
8.20801e-07
3.37622e-07
5.89223e-07
3.46859e-07
3.65293e-07
3.55704e-07
2.31545e-07
3.65588e-07
1.63573e-07
3.78089e-07
1.28028e-07
3.96061e-07
1.09431e-07
4.2392e-07
1.01586e-07
4.67442e-07
1.03176e-07
5.37667e-07
1.18121e-07
6.6053e-07
1.65212e-07
9.12771e-07
3.40724e-07
1.55489e-06
1.7743e-07
1.86838e-07
1.90368e-07
1.97724e-07
2.03446e-07
2.12023e-07
2.16319e-07
2.33273e-07
2.29783e-07
2.68273e-07
2.44351e-07
3.28814e-07
2.60365e-07
4.35491e-07
2.77155e-07
6.07138e-07
2.92684e-07
7.96092e-07
3.05066e-07
8.38691e-07
3.13812e-07
6.63721e-07
3.19802e-07
4.30397e-07
3.24454e-07
2.69154e-07
3.29133e-07
1.82301e-07
3.35208e-07
1.36451e-07
3.44719e-07
1.11299e-07
3.60441e-07
9.80219e-08
3.85279e-07
9.31273e-08
4.23995e-07
9.64477e-08
4.86113e-07
1.12209e-07
5.9534e-07
1.58502e-07
8.22271e-07
3.2814e-07
1.42702e-06
1.66771e-07
1.75597e-07
1.78892e-07
1.85605e-07
1.91171e-07
1.98414e-07
2.03335e-07
2.16908e-07
2.16078e-07
2.46499e-07
2.29856e-07
2.96386e-07
2.44981e-07
3.83246e-07
2.60843e-07
5.28466e-07
2.75469e-07
7.16908e-07
2.86849e-07
8.25275e-07
2.94213e-07
7.24983e-07
2.98179e-07
5.02751e-07
3.00073e-07
3.17199e-07
3.01265e-07
2.07977e-07
3.03053e-07
1.49471e-07
3.07115e-07
1.16926e-07
3.15368e-07
9.85132e-08
3.29489e-07
8.89728e-08
3.51676e-07
8.63497e-08
3.85935e-07
9.11069e-08
4.4088e-07
1.07588e-07
5.37382e-07
1.53546e-07
7.38052e-07
3.19606e-07
1.30359e-06
1.56714e-07
1.65097e-07
1.68133e-07
1.7443e-07
1.79723e-07
1.86068e-07
1.91267e-07
2.02372e-07
2.03381e-07
2.27645e-07
2.16481e-07
2.69043e-07
2.30872e-07
3.39725e-07
2.46028e-07
4.59908e-07
2.60091e-07
6.33935e-07
2.70987e-07
7.83654e-07
2.77686e-07
7.63802e-07
2.80521e-07
5.76542e-07
2.80685e-07
3.75297e-07
2.79555e-07
2.4199e-07
2.78441e-07
1.67675e-07
2.78846e-07
1.26232e-07
2.82269e-07
1.02232e-07
2.89779e-07
8.8493e-08
3.02475e-07
8.17735e-08
3.22182e-07
8.10016e-08
3.5247e-07
8.70079e-08
4.00764e-07
1.04302e-07
4.84453e-07
1.50344e-07
6.61139e-07
3.14683e-07
1.18613e-06
1.47153e-07
1.55198e-07
1.57962e-07
1.64011e-07
1.68949e-07
1.7473e-07
1.79945e-07
1.89291e-07
1.91504e-07
2.11124e-07
2.04017e-07
2.45777e-07
2.17786e-07
3.03462e-07
2.32383e-07
4.01605e-07
2.46098e-07
5.54013e-07
2.56859e-07
7.21145e-07
2.63406e-07
7.73996e-07
2.65777e-07
6.4341e-07
2.64979e-07
4.41716e-07
2.62369e-07
2.85494e-07
2.59299e-07
1.92062e-07
2.57189e-07
1.39568e-07
2.57346e-07
1.08996e-07
2.60548e-07
9.08466e-08
2.67394e-07
8.05778e-08
2.78734e-07
7.61147e-08
2.96177e-07
7.693e-08
3.22747e-07
8.41267e-08
3.64229e-07
1.0227e-07
4.36257e-07
1.48684e-07
5.91714e-07
3.12942e-07
1.07595e-06
1.38012e-07
1.45795e-07
1.48279e-07
1.54203e-07
1.58732e-07
1.64202e-07
1.69239e-07
1.77379e-07
1.80305e-07
1.9647e-07
1.92296e-07
2.25772e-07
2.05528e-07
2.73124e-07
2.19661e-07
3.52748e-07
2.3316e-07
4.81483e-07
2.44006e-07
6.46951e-07
2.50765e-07
7.54355e-07
2.5317e-07
6.9386e-07
2.52006e-07
5.1221e-07
2.48554e-07
3.38497e-07
2.44204e-07
2.23973e-07
2.40362e-07
1.57631e-07
2.38246e-07
1.19005e-07
2.38507e-07
9.57892e-08
2.41523e-07
8.19142e-08
2.47678e-07
7.43732e-08
2.57738e-07
7.18152e-08
2.72999e-07
7.40658e-08
2.95626e-07
8.23713e-08
3.30783e-07
1.01345e-07
3.92829e-07
1.48377e-07
5.2966e-07
3.14242e-07
9.74808e-07
1.29237e-07
1.3681e-07
1.39011e-07
1.449e-07
1.48986e-07
1.54328e-07
1.59048e-07
1.66406e-07
1.69669e-07
1.83314e-07
1.81194e-07
2.0837e-07
1.93946e-07
2.47554e-07
2.07679e-07
3.12083e-07
2.21033e-07
4.1825e-07
2.32093e-07
5.69733e-07
2.39303e-07
7.08967e-07
2.42114e-07
7.19702e-07
2.41048e-07
5.79741e-07
2.37268e-07
3.99971e-07
2.3216e-07
2.64616e-07
2.27149e-07
1.81424e-07
2.23423e-07
1.32739e-07
2.21613e-07
1.03411e-07
2.21993e-07
8.54955e-08
2.24741e-07
7.49313e-08
2.30206e-07
6.96551e-08
2.38955e-07
6.87724e-08
2.51788e-07
7.23004e-08
2.70631e-07
8.16087e-08
3.00435e-07
1.01416e-07
3.54097e-07
1.49373e-07
4.75114e-07
3.19209e-07
8.83272e-07
1.20787e-07
1.28184e-07
1.3011e-07
1.36021e-07
1.39644e-07
1.44995e-07
1.49297e-07
1.56193e-07
1.59509e-07
1.71362e-07
1.70609e-07
1.93053e-07
1.82926e-07
2.25809e-07
1.96295e-07
2.78277e-07
2.09534e-07
3.64591e-07
2.20866e-07
4.96062e-07
2.28676e-07
6.45751e-07
2.3216e-07
7.16626e-07
2.3156e-07
6.35305e-07
2.27866e-07
4.66652e-07
2.22424e-07
3.14176e-07
2.16674e-07
2.12246e-07
2.11818e-07
1.50953e-07
2.08515e-07
1.14052e-07
2.07016e-07
9.1338e-08
2.07409e-07
7.74692e-08
2.09837e-07
6.96112e-08
2.14521e-07
6.62865e-08
2.21705e-07
6.68566e-08
2.32115e-07
7.15066e-08
2.47763e-07
8.17396e-08
2.7321e-07
1.02433e-07
3.20072e-07
1.51843e-07
4.27871e-07
3.27964e-07
8.05027e-07
1.12636e-07
1.19878e-07
1.21536e-07
1.27505e-07
1.30658e-07
1.36111e-07
1.39933e-07
1.46603e-07
1.49761e-07
1.60383e-07
1.60468e-07
1.79406e-07
1.7238e-07
2.07106e-07
1.85406e-07
2.50059e-07
1.98533e-07
3.19776e-07
2.10144e-07
4.29819e-07
2.18622e-07
5.73908e-07
2.2296e-07
6.85708e-07
2.2311e-07
6.6996e-07
2.19847e-07
5.32526e-07
2.14431e-07
3.71953e-07
2.08295e-07
2.51217e-07
2.02676e-07
1.74661e-07
1.98291e-07
1.28276e-07
1.95416e-07
9.96759e-08
1.94117e-07
8.19507e-08
1.94432e-07
7.13418e-08
1.96419e-07
6.57745e-08
2.00074e-07
6.41123e-08
2.05625e-07
6.59322e-08
2.13992e-07
7.15828e-08
2.27097e-07
8.27058e-08
2.49122e-07
1.04438e-07
2.90584e-07
1.55807e-07
3.88319e-07
3.40219e-07
7.39932e-07
1.04772e-07
1.11865e-07
1.13266e-07
1.19307e-07
1.21998e-07
1.27608e-07
1.30911e-07
1.37526e-07
1.40379e-07
1.50192e-07
1.50714e-07
1.67097e-07
1.62244e-07
1.90824e-07
1.74934e-07
2.26331e-07
1.87933e-07
2.82636e-07
1.99794e-07
3.72658e-07
2.0895e-07
5.01559e-07
2.14245e-07
6.33003e-07
2.15357e-07
6.77562e-07
2.12812e-07
5.89229e-07
2.07731e-07
4.35212e-07
2.01516e-07
2.9859e-07
1.95435e-07
2.05116e-07
1.90278e-07
1.46874e-07
1.86383e-07
1.10934e-07
1.83829e-07
8.85314e-08
1.82616e-07
7.47693e-08
1.82716e-07
6.68792e-08
1.84024e-07
6.32361e-08
1.8655e-07
6.29817e-08
1.90718e-07
6.58909e-08
1.97484e-07
7.24615e-08
2.0868e-07
8.45107e-08
2.28101e-07
1.07443e-07
2.65728e-07
1.612e-07
3.55965e-07
3.56095e-07
6.85836e-07
9.71908e-08
1.04131e-07
1.05289e-07
1.114e-07
1.13643e-07
1.19438e-07
1.22205e-07
1.28883e-07
1.31328e-07
1.40646e-07
1.41305e-07
1.55864e-07
1.52465e-07
1.76467e-07
1.64821e-07
2.06166e-07
1.77666e-07
2.51855e-07
1.89726e-07
3.24574e-07
1.99523e-07
4.34359e-07
2.05812e-07
5.67398e-07
2.0803e-07
6.56971e-07
2.06432e-07
6.27739e-07
2.01962e-07
4.98569e-07
1.95942e-07
3.53752e-07
1.89661e-07
2.43261e-07
1.83988e-07
1.70874e-07
1.79341e-07
1.2573e-07
1.7584e-07
9.75328e-08
1.73482e-07
7.99903e-08
1.72208e-07
6.9491e-08
1.71871e-07
6.38578e-08
1.72382e-07
6.18235e-08
1.73934e-07
6.27741e-08
1.77051e-07
6.66572e-08
1.82669e-07
7.41211e-08
1.92485e-07
8.715e-08
2.10235e-07
1.1144e-07
2.45361e-07
1.68086e-07
3.29804e-07
3.76098e-07
6.41297e-07
8.98959e-08
9.66703e-08
9.76014e-08
1.03768e-07
1.05582e-07
1.11568e-07
1.138e-07
1.2061e-07
1.22584e-07
1.31635e-07
1.32214e-07
1.45502e-07
1.43009e-07
1.63642e-07
1.55027e-07
1.88822e-07
1.67684e-07
2.26225e-07
1.79878e-07
2.84718e-07
1.90246e-07
3.75253e-07
1.97512e-07
4.97824e-07
2.00913e-07
6.12542e-07
2.00441e-07
6.41021e-07
1.96816e-07
5.54198e-07
1.91244e-07
4.14174e-07
1.85007e-07
2.89361e-07
1.79042e-07
2.01495e-07
1.73859e-07
1.44889e-07
1.69642e-07
1.09442e-07
1.66409e-07
8.72463e-08
1.64099e-07
7.366e-08
1.62557e-07
6.58423e-08
1.61652e-07
6.20754e-08
1.61467e-07
6.13984e-08
1.62298e-07
6.3404e-08
1.647e-07
6.81927e-08
1.69559e-07
7.65477e-08
1.78617e-07
9.0625e-08
1.95536e-07
1.16496e-07
2.2903e-07
1.76694e-07
3.09106e-07
4.0081e-07
6.054e-07
8.28985e-08
8.94865e-08
9.02091e-08
9.64043e-08
9.78163e-08
1.03978e-07
1.05687e-07
1.12666e-07
1.14132e-07
1.23075e-07
1.23419e-07
1.35849e-07
1.33851e-07
1.5204e-07
1.45522e-07
1.73698e-07
1.57956e-07
2.04685e-07
1.70211e-07
2.51851e-07
1.81058e-07
3.25125e-07
1.89239e-07
4.31213e-07
1.93846e-07
5.52499e-07
1.9462e-07
6.26611e-07
1.92037e-07
5.93244e-07
1.87145e-07
4.7477e-07
1.8118e-07
3.42734e-07
1.75134e-07
2.3942e-07
1.69606e-07
1.69446e-07
1.64859e-07
1.24923e-07
1.60952e-07
9.69211e-08
1.57842e-07
7.95649e-08
1.55386e-07
6.92035e-08
1.53445e-07
6.35822e-08
1.52034e-07
6.13707e-08
1.51342e-07
6.18614e-08
1.51719e-07
6.48184e-08
1.53706e-07
7.04709e-08
1.58256e-07
7.97398e-08
1.67158e-07
9.49883e-08
1.83776e-07
1.22758e-07
2.1632e-07
1.87379e-07
2.93394e-07
4.31749e-07
5.77223e-07
7.62131e-08
8.25891e-08
8.31233e-08
8.93098e-08
9.03507e-08
9.6656e-08
9.78694e-08
1.05021e-07
1.05967e-07
1.14903e-07
1.14911e-07
1.26782e-07
1.24978e-07
1.41421e-07
1.36289e-07
1.60327e-07
1.48464e-07
1.86359e-07
1.60706e-07
2.24679e-07
1.71927e-07
2.83494e-07
1.80927e-07
3.71661e-07
1.86708e-07
4.86105e-07
1.88795e-07
5.87666e-07
1.8741e-07
6.08408e-07
1.83405e-07
5.28032e-07
1.7793e-07
4.00811e-07
1.72006e-07
2.849e-07
1.66313e-07
2.00575e-07
1.61196e-07
1.44839e-07
1.56777e-07
1.09554e-07
1.53043e-07
8.75073e-08
1.49877e-07
7.40703e-08
1.47147e-07
6.63287e-08
1.44834e-07
6.25196e-08
1.43065e-07
6.16264e-08
1.42085e-07
6.31449e-08
1.42253e-07
6.69768e-08
1.44173e-07
7.34828e-08
1.48872e-07
8.37377e-08
1.57995e-07
1.00353e-07
1.74712e-07
1.30461e-07
2.07e-07
2.00763e-07
2.82496e-07
4.71164e-07
5.58436e-07
6.98603e-08
7.59933e-08
7.63592e-08
8.24935e-08
8.31984e-08
8.9603e-08
9.0356e-08
9.76598e-08
9.8097e-08
1.07076e-07
1.06686e-07
1.18207e-07
1.16379e-07
1.31597e-07
1.27317e-07
1.48344e-07
1.39198e-07
1.7055e-07
1.51354e-07
2.02045e-07
1.62838e-07
2.49258e-07
1.72539e-07
3.20765e-07
1.7942e-07
4.21054e-07
1.82834e-07
5.31829e-07
1.82756e-07
5.9664e-07
1.79816e-07
5.65365e-07
1.75038e-07
4.58544e-07
1.69433e-07
3.37053e-07
1.6375e-07
2.38756e-07
1.58418e-07
1.70242e-07
1.53627e-07
1.25858e-07
1.49409e-07
9.79226e-08
1.45684e-07
8.06799e-08
1.42337e-07
7.0405e-08
1.39337e-07
6.4807e-08
1.36769e-07
6.25138e-08
1.34822e-07
6.27583e-08
1.33757e-07
6.51943e-08
1.33999e-07
6.98614e-08
1.36215e-07
7.72578e-08
1.41357e-07
8.86274e-08
1.50962e-07
1.06879e-07
1.68182e-07
1.39903e-07
2.00989e-07
2.1726e-07
2.77038e-07
5.22307e-07
5.47629e-07
6.38644e-08
6.972e-08
6.99373e-08
7.59693e-08
7.63751e-08
8.2824e-08
8.31573e-08
9.05748e-08
9.05332e-08
9.95647e-08
9.87514e-08
1.10055e-07
1.08057e-07
1.22425e-07
1.18604e-07
1.37463e-07
1.30157e-07
1.56708e-07
1.42157e-07
1.82973e-07
1.53795e-07
2.21119e-07
1.64063e-07
2.78436e-07
1.71936e-07
3.62204e-07
1.76641e-07
4.68368e-07
1.77931e-07
5.60531e-07
1.76198e-07
5.79599e-07
1.72306e-07
5.08564e-07
1.67217e-07
3.93086e-07
1.6172e-07
2.84075e-07
1.56324e-07
2.02102e-07
1.51292e-07
1.46734e-07
1.46712e-07
1.11398e-07
1.42548e-07
8.93853e-08
1.38712e-07
7.59964e-08
1.35171e-07
6.82919e-08
1.31989e-07
6.44672e-08
1.29317e-07
6.34607e-08
1.27368e-07
6.46953e-08
1.26457e-07
6.798e-08
1.27068e-07
7.34905e-08
1.29818e-07
8.18613e-08
1.35587e-07
9.45233e-08
1.45926e-07
1.14724e-07
1.64088e-07
1.50993e-07
1.98379e-07
2.36078e-07
2.7668e-07
5.72792e-07
5.55835e-07
5.82513e-08
6.37923e-08
6.38821e-08
6.97582e-08
6.99015e-08
7.63327e-08
7.62929e-08
8.37685e-08
8.32855e-08
9.23543e-08
9.11154e-08
1.02279e-07
1.00017e-07
1.13797e-07
1.10152e-07
1.27468e-07
1.21341e-07
1.44407e-07
1.33123e-07
1.66665e-07
1.4481e-07
1.97842e-07
1.55509e-07
2.43708e-07
1.64239e-07
3.11695e-07
1.70156e-07
4.05355e-07
1.72824e-07
5.07364e-07
1.72401e-07
5.67692e-07
1.69561e-07
5.42557e-07
1.65176e-07
4.47793e-07
1.60043e-07
3.3535e-07
1.54738e-07
2.4083e-07
1.49597e-07
1.73242e-07
1.44769e-07
1.28688e-07
1.40269e-07
1.00671e-07
1.36044e-07
8.33886e-08
1.32071e-07
7.31193e-08
1.28403e-07
6.75212e-08
1.25168e-07
6.51798e-08
1.22547e-07
6.52698e-08
1.20796e-07
6.73946e-08
1.20287e-07
7.15094e-08
1.21463e-07
7.79132e-08
1.24886e-07
8.73764e-08
1.31439e-07
1.0151e-07
1.42749e-07
1.23693e-07
1.62261e-07
1.62917e-07
1.98253e-07
2.54053e-07
2.81268e-07
6.16713e-07
5.68804e-07
5.30472e-08
5.82362e-08
5.82197e-08
6.3882e-08
6.3802e-08
7.01463e-08
6.97831e-08
7.72497e-08
7.63731e-08
8.54382e-08
8.37942e-08
9.48457e-08
9.22703e-08
1.05636e-07
1.0197e-07
1.18195e-07
1.12761e-07
1.33323e-07
1.24264e-07
1.52504e-07
1.35901e-07
1.78366e-07
1.46897e-07
2.15287e-07
1.56336e-07
2.69699e-07
1.6335e-07
3.48068e-07
1.67359e-07
4.46357e-07
1.68304e-07
5.32212e-07
1.6665e-07
5.5375e-07
1.63143e-07
4.9382e-07
1.58554e-07
3.89423e-07
1.53501e-07
2.86241e-07
1.48385e-07
2.06054e-07
1.43423e-07
1.5072e-07
1.38684e-07
1.15172e-07
1.34158e-07
9.29809e-08
1.29839e-07
7.9521e-08
1.25777e-07
7.17883e-08
1.2209e-07
6.79316e-08
1.18938e-07
6.68323e-08
1.16543e-07
6.7883e-08
1.15202e-07
7.08521e-08
1.15259e-07
7.58177e-08
1.17106e-07
8.31899e-08
1.21295e-07
9.38465e-08
1.2874e-07
1.09384e-07
1.4115e-07
1.33117e-07
1.61684e-07
1.74415e-07
1.99701e-07
2.69875e-07
2.87402e-07
6.55249e-07
5.79895e-07
4.82768e-08
5.30785e-08
5.2976e-08
5.83673e-08
5.81037e-08
6.42871e-08
6.36528e-08
7.10346e-08
6.98184e-08
7.88203e-08
7.68069e-08
8.77389e-08
8.48342e-08
9.78863e-08
9.40731e-08
1.09521e-07
1.0443e-07
1.23208e-07
1.15597e-07
1.40011e-07
1.27095e-07
1.6183e-07
1.38255e-07
1.91898e-07
1.4825e-07
2.35332e-07
1.5622e-07
2.98874e-07
1.61491e-07
3.85633e-07
1.63814e-07
4.80416e-07
1.63444e-07
5.39604e-07
1.6097e-07
5.23174e-07
1.57099e-07
4.40787e-07
1.5246e-07
3.36738e-07
1.47513e-07
2.45537e-07
1.42535e-07
1.78495e-07
1.37656e-07
1.33689e-07
1.32911e-07
1.05305e-07
1.2832e-07
8.78281e-08
1.2394e-07
7.74591e-08
1.19881e-07
7.18026e-08
1.16295e-07
6.93821e-08
1.13381e-07
6.93476e-08
1.1139e-07
7.12837e-08
1.106e-07
7.50907e-08
1.11305e-07
8.09481e-08
1.13873e-07
8.93387e-08
1.18856e-07
1.01085e-07
1.27183e-07
1.17581e-07
1.40207e-07
1.42248e-07
1.61728e-07
1.84803e-07
2.02525e-07
2.83624e-07
2.93231e-07
6.89397e-07
5.90043e-07
4.39621e-08
4.83446e-08
4.81754e-08
5.32414e-08
5.28326e-08
5.87823e-08
5.79297e-08
6.51441e-08
6.36469e-08
7.25119e-08
7.01784e-08
8.0952e-08
7.77307e-08
9.05128e-08
8.64799e-08
1.01359e-07
9.63659e-08
1.13876e-07
1.07144e-07
1.28824e-07
1.18419e-07
1.4756e-07
1.2962e-07
1.7243e-07
1.40016e-07
2.07316e-07
1.48787e-07
2.58062e-07
1.55205e-07
3.30501e-07
1.58871e-07
4.21412e-07
1.5984e-07
5.03133e-07
1.58524e-07
5.29739e-07
1.55533e-07
4.82063e-07
1.51476e-07
3.88678e-07
1.46846e-07
2.91135e-07
1.41979e-07
2.12519e-07
1.37063e-07
1.57181e-07
1.32183e-07
1.21041e-07
1.2739e-07
9.84868e-08
1.22755e-07
8.48091e-08
1.18389e-07
7.69495e-08
1.14441e-07
7.29863e-08
1.11094e-07
7.17742e-08
1.08571e-07
7.26954e-08
1.07106e-07
7.54829e-08
1.06932e-07
8.01403e-08
1.08306e-07
8.69028e-08
1.11575e-07
9.61952e-08
1.17271e-07
1.08597e-07
1.2599e-07
1.25526e-07
1.39571e-07
1.50582e-07
1.63043e-07
1.93935e-07
2.05738e-07
2.95634e-07
2.98493e-07
7.19601e-07
5.99682e-07
4.01199e-08
4.40566e-08
4.38394e-08
4.85286e-08
4.80126e-08
5.36565e-08
5.26402e-08
5.96013e-08
5.78883e-08
6.65289e-08
6.39379e-08
7.4489e-08
7.09877e-08
8.34962e-08
7.92152e-08
9.36453e-08
8.85926e-08
1.05193e-07
9.8929e-08
1.18669e-07
1.09902e-07
1.35037e-07
1.21031e-07
1.55977e-07
1.31679e-07
1.8434e-07
1.41086e-07
2.24768e-07
1.48511e-07
2.83327e-07
1.53443e-07
3.63126e-07
1.55759e-07
4.51782e-07
1.55693e-07
5.11871e-07
1.53724e-07
5.05661e-07
1.50411e-07
4.3618e-07
1.46254e-07
3.40725e-07
1.41633e-07
2.52896e-07
1.36791e-07
1.86373e-07
1.31865e-07
1.41025e-07
1.26943e-07
1.12075e-07
1.22114e-07
9.42149e-08
1.17498e-07
8.36052e-08
1.13244e-07
7.77741e-08
1.09528e-07
7.52127e-08
1.06553e-07
7.50607e-08
1.04528e-07
7.68742e-08
1.03641e-07
8.0499e-08
1.04085e-07
8.59917e-08
1.06082e-07
9.35376e-08
1.09941e-07
1.03315e-07
1.15917e-07
1.15867e-07
1.25008e-07
1.32801e-07
1.40084e-07
1.57975e-07
1.64975e-07
2.01975e-07
2.08797e-07
3.06128e-07
3.03288e-07
7.46228e-07
6.08915e-07
3.67603e-08
4.02327e-08
3.99837e-08
4.42535e-08
4.36648e-08
4.89362e-08
4.78092e-08
5.44322e-08
5.25686e-08
6.08938e-08
5.81136e-08
6.83613e-08
6.46336e-08
7.68293e-08
7.23083e-08
8.63411e-08
8.11387e-08
9.70598e-08
9.0982e-08
1.09346e-07
1.01578e-07
1.23875e-07
1.1253e-07
1.41832e-07
1.23288e-07
1.65276e-07
1.33166e-07
1.97702e-07
1.41437e-07
2.44353e-07
1.47523e-07
3.10624e-07
1.51154e-07
3.9453e-07
1.52388e-07
4.73358e-07
1.51558e-07
5.06418e-07
1.49137e-07
4.71841e-07
1.4561e-07
3.90085e-07
1.41379e-07
2.98603e-07
1.36733e-07
2.21722e-07
1.31858e-07
1.66149e-07
1.26884e-07
1.29317e-07
1.21925e-07
1.06169e-07
1.17113e-07
9.20883e-08
1.12602e-07
8.39427e-08
1.08568e-07
7.97718e-08
1.05202e-07
7.84156e-08
1.02695e-07
7.92278e-08
1.01209e-07
8.18929e-08
1.00895e-07
8.63164e-08
1.01898e-07
9.2517e-08
1.044e-07
1.00443e-07
1.08492e-07
1.10183e-07
1.14764e-07
1.22524e-07
1.25058e-07
1.39288e-07
1.41287e-07
1.64517e-07
1.66968e-07
2.09043e-07
2.11649e-07
3.15284e-07
3.07664e-07
7.69589e-07
6.17824e-07
3.38877e-08
3.68836e-08
3.66175e-08
4.04339e-08
3.9804e-08
4.46455e-08
4.34563e-08
4.96624e-08
4.77135e-08
5.56301e-08
5.27346e-08
6.25864e-08
5.87005e-08
7.05145e-08
6.57922e-08
7.94247e-08
7.40372e-08
8.94101e-08
8.33359e-08
1.00709e-07
9.34851e-08
1.13782e-07
1.04161e-07
1.29458e-07
1.14896e-07
1.49202e-07
1.25082e-07
1.75567e-07
1.34031e-07
2.12676e-07
1.41131e-07
2.66014e-07
1.46001e-07
3.38888e-07
1.48543e-07
4.21994e-07
1.48934e-07
4.83893e-07
1.47539e-07
4.88694e-07
1.44793e-07
4.32932e-07
1.411e-07
3.46887e-07
1.3678e-07
2.62941e-07
1.32066e-07
1.96987e-07
1.27127e-07
1.51062e-07
1.22106e-07
1.21293e-07
1.17154e-07
1.0282e-07
1.12434e-07
9.17663e-08
1.08126e-07
8.56196e-08
1.04418e-07
8.28514e-08
1.01487e-07
8.25674e-08
9.94837e-08
8.42743e-08
9.8529e-08
8.77291e-08
9.8725e-08
9.28159e-08
1.00178e-07
9.93276e-08
1.02902e-07
1.07081e-07
1.07265e-07
1.16466e-07
1.14533e-07
1.28475e-07
1.25804e-07
1.45043e-07
1.42673e-07
1.70291e-07
1.68909e-07
2.15241e-07
2.14285e-07
3.23251e-07
3.11678e-07
7.89923e-07
6.26509e-07
3.15014e-08
3.40154e-08
3.37439e-08
3.70821e-08
3.64386e-08
4.08034e-08
3.95965e-08
4.53168e-08
4.33432e-08
5.07633e-08
4.78262e-08
5.7185e-08
5.32187e-08
6.45633e-08
5.97009e-08
7.28878e-08
6.73244e-08
8.22024e-08
7.6029e-08
9.26533e-08
8.56638e-08
1.04548e-07
9.59702e-08
1.18457e-07
1.06559e-07
1.35404e-07
1.16895e-07
1.57222e-07
1.26349e-07
1.86991e-07
1.34304e-07
2.29362e-07
1.40303e-07
2.89396e-07
1.44118e-07
3.66512e-07
1.45774e-07
4.42872e-07
1.4551e-07
4.82791e-07
1.43685e-07
4.61982e-07
1.40679e-07
3.92892e-07
1.36826e-07
3.08412e-07
1.32392e-07
2.33712e-07
1.27584e-07
1.78002e-07
1.2258e-07
1.40343e-07
1.1755e-07
1.16335e-07
1.12672e-07
1.01606e-07
1.08135e-07
9.29925e-08
1.04126e-07
8.85131e-08
1.00819e-07
8.69691e-08
9.83584e-08
8.76572e-08
9.68501e-08
9.01698e-08
9.63699e-08
9.42673e-08
9.69813e-08
9.96168e-08
9.86656e-08
1.05853e-07
1.0166e-07
1.13143e-07
1.06864e-07
1.22086e-07
1.14978e-07
1.33757e-07
1.26805e-07
1.50127e-07
1.44097e-07
1.75366e-07
1.70752e-07
2.20657e-07
2.16716e-07
3.30149e-07
3.15378e-07
8.074e-07
6.34916e-07
2.95977e-08
3.16288e-08
3.13611e-08
3.42059e-08
3.35707e-08
3.74236e-08
3.62368e-08
4.14144e-08
3.94714e-08
4.63169e-08
4.341e-08
5.21804e-08
4.82155e-08
5.89923e-08
5.40676e-08
6.67324e-08
6.1038e-08
7.54111e-08
6.91037e-08
8.51105e-08
7.81611e-08
9.60229e-08
8.80099e-08
1.08532e-07
9.83331e-08
1.23346e-07
1.08672e-07
1.41761e-07
1.18458e-07
1.66003e-07
1.27096e-07
1.99687e-07
1.34087e-07
2.47748e-07
1.391e-07
3.13777e-07
1.42023e-07
3.91477e-07
1.42962e-07
4.5516e-07
1.42179e-07
4.71145e-07
1.40003e-07
4.30003e-07
1.36761e-07
3.54648e-07
1.32736e-07
2.75529e-07
1.28171e-07
2.10562e-07
1.23272e-07
1.64048e-07
1.18234e-07
1.33288e-07
1.13255e-07
1.13922e-07
1.08534e-07
1.02204e-07
1.04266e-07
9.5606e-08
1.00627e-07
9.2559e-08
9.7758e-08
9.2105e-08
9.57618e-08
9.36398e-08
9.47013e-08
9.67969e-08
9.46176e-08
1.01123e-07
9.548e-08
1.06116e-07
9.74439e-08
1.118e-07
1.0116e-07
1.18562e-07
1.07106e-07
1.27069e-07
1.15721e-07
1.38419e-07
1.27906e-07
1.54596e-07
1.45501e-07
1.79807e-07
1.7249e-07
2.25365e-07
2.1896e-07
3.36076e-07
3.1878e-07
8.22348e-07
6.43179e-07
2.81715e-08
2.97209e-08
2.94642e-08
3.18066e-08
3.11971e-08
3.4515e-08
3.33785e-08
3.7971e-08
3.61049e-08
4.23111e-08
3.94988e-08
4.75958e-08
4.37128e-08
5.38223e-08
4.89214e-08
6.09693e-08
5.52146e-08
6.90284e-08
6.26022e-08
7.80351e-08
7.10242e-08
8.81016e-08
8.03347e-08
9.94741e-08
9.02817e-08
1.12633e-07
1.00481e-07
1.28482e-07
1.10432e-07
1.48602e-07
1.19575e-07
1.75661e-07
1.27398e-07
2.13751e-07
1.33498e-07
2.67622e-07
1.37649e-07
3.38016e-07
1.39826e-07
4.11651e-07
1.40178e-07
4.5801e-07
1.38963e-07
4.51305e-07
1.36474e-07
3.96157e-07
1.32997e-07
3.20101e-07
1.28794e-07
2.48494e-07
1.24102e-07
1.92961e-07
1.1914e-07
1.54395e-07
1.14125e-07
1.29283e-07
1.09273e-07
1.13651e-07
1.0479e-07
1.04402e-07
1.00859e-07
9.95153e-08
9.76259e-08
9.77254e-08
9.51954e-08
9.81894e-08
9.3628e-08
1.00394e-07
9.2955e-08
1.03759e-07
9.3146e-08
1.07662e-07
9.4302e-08
1.12026e-07
9.68933e-08
1.17109e-07
1.01264e-07
1.23358e-07
1.0767e-07
1.31459e-07
1.16606e-07
1.42511e-07
1.29037e-07
1.58502e-07
1.46861e-07
1.83669e-07
1.74123e-07
2.2943e-07
2.2103e-07
3.41153e-07
3.21939e-07
8.34916e-07
6.51297e-07
2.72194e-08
2.82873e-08
2.80473e-08
2.98827e-08
2.93119e-08
3.20804e-08
3.10177e-08
3.49964e-08
3.32443e-08
3.87635e-08
3.60998e-08
4.34527e-08
3.97242e-08
4.90749e-08
4.42855e-08
5.56152e-08
4.98872e-08
6.30565e-08
5.65668e-08
7.1404e-08
6.43033e-08
8.07136e-08
7.3002e-08
9.11327e-08
8.24709e-08
1.02977e-07
9.23971e-08
1.16868e-07
1.02348e-07
1.33913e-07
1.11816e-07
1.56021e-07
1.20296e-07
1.86313e-07
1.27345e-07
2.29215e-07
1.32645e-07
2.88517e-07
1.36053e-07
3.60572e-07
1.37602e-07
4.25247e-07
1.37457e-07
4.51942e-07
1.35857e-07
4.2619e-07
1.33068e-07
3.63153e-07
1.2936e-07
2.90337e-07
1.24988e-07
2.27165e-07
1.20195e-07
1.80239e-07
1.15222e-07
1.48344e-07
1.10301e-07
1.27828e-07
1.05653e-07
1.15247e-07
1.01473e-07
1.08076e-07
9.79185e-08
1.04675e-07
9.51002e-08
1.03913e-07
9.30841e-08
1.05095e-07
9.19011e-08
1.07499e-07
9.15271e-08
1.10385e-07
9.20266e-08
1.13593e-07
9.37346e-08
1.17292e-07
9.69055e-08
1.21795e-07
1.01702e-07
1.2757e-07
1.08404e-07
1.353e-07
1.17555e-07
1.46077e-07
1.30165e-07
1.61892e-07
1.48167e-07
1.87002e-07
1.75654e-07
2.3292e-07
2.22945e-07
3.45456e-07
3.24864e-07
8.45313e-07
6.59197e-07
2.67426e-08
2.73258e-08
2.71064e-08
2.84311e-08
2.79086e-08
3.01194e-08
2.91474e-08
3.24947e-08
3.08842e-08
3.56842e-08
3.32127e-08
3.97676e-08
3.62571e-08
4.47699e-08
4.01762e-08
5.06884e-08
4.50824e-08
5.75047e-08
5.1035e-08
6.52074e-08
5.80477e-08
7.38151e-08
6.60706e-08
8.3404e-08
7.49683e-08
9.41719e-08
8.44971e-08
1.06539e-07
9.42928e-08
1.21269e-07
1.03905e-07
1.39701e-07
1.12858e-07
1.64111e-07
1.20692e-07
1.98065e-07
1.27027e-07
2.4597e-07
1.31619e-07
3.0957e-07
1.34387e-07
3.79686e-07
1.35394e-07
4.31357e-07
1.34804e-07
4.38572e-07
1.32842e-07
3.98672e-07
1.29766e-07
3.32922e-07
1.25839e-07
2.6583e-07
1.21325e-07
2.11093e-07
1.16483e-07
1.71676e-07
1.11565e-07
1.4531e-07
1.06811e-07
1.28569e-07
1.02432e-07
1.18542e-07
9.8599e-08
1.13161e-07
9.54362e-08
1.10946e-07
9.30206e-08
1.1098e-07
9.13894e-08
1.12367e-07
9.0528e-08
1.14247e-07
9.04764e-08
1.16381e-07
9.14666e-08
1.18866e-07
9.36895e-08
1.21924e-07
9.72561e-08
1.25895e-07
1.0233e-07
1.31241e-07
1.09229e-07
1.38634e-07
1.18532e-07
1.4916e-07
1.31274e-07
1.64808e-07
1.49417e-07
1.89858e-07
1.77091e-07
2.3589e-07
2.24711e-07
3.49073e-07
3.2755e-07
8.5373e-07
6.66947e-07
2.67482e-08
2.68378e-08
2.66423e-08
2.74497e-08
2.69827e-08
2.86296e-08
2.776e-08
3.04667e-08
2.90174e-08
3.30793e-08
3.08313e-08
3.65523e-08
3.33102e-08
4.09253e-08
3.66002e-08
4.62077e-08
4.08168e-08
5.23877e-08
4.60363e-08
5.94483e-08
5.22999e-08
6.73836e-08
5.95962e-08
7.62219e-08
6.78431e-08
8.60768e-08
7.68603e-08
9.72248e-08
8.63534e-08
1.10185e-07
9.59353e-08
1.25882e-07
1.05172e-07
1.45922e-07
1.13611e-07
1.72978e-07
1.20835e-07
2.10953e-07
1.26524e-07
2.63638e-07
1.30492e-07
3.29534e-07
1.32698e-07
3.93895e-07
1.33216e-07
4.30117e-07
1.3221e-07
4.20119e-07
1.29905e-07
3.7121e-07
1.2656e-07
3.06689e-07
1.22445e-07
2.46544e-07
1.17837e-07
1.99642e-07
1.13008e-07
1.66632e-07
1.08218e-07
1.44866e-07
1.03697e-07
1.31285e-07
9.96333e-08