/*--------------------------------*- C++ -*----------------------------------*\
  =========                 |
  \\      /  F ield         | OpenFOAM: The Open Source CFD Toolbox
   \\    /   O peration     | Website:  https://openfoam.org
    \\  /    A nd           | Version:  7
     \\/     M anipulation  |
\*---------------------------------------------------------------------------*/
FoamFile
{
    version     2.0;
    format      ascii;
    class       volScalarField;
    location    "20000";
    object      k;
}
// * * * * * * * * * * * * * * * * * * * * * * * * * * * * * * * * * * * * * //

dimensions      [0 2 -2 0 0 0 0];

internalField   nonuniform List<scalar> 
10981
(
3.74748e-06
2.196e-05
3.67216e-06
3.86678e-06
2.7072e-05
2.12979e-05
2.29841e-05
3.38228e-06
4.00846e-06
2.91649e-05
2.60825e-05
2.78524e-05
2.03035e-05
2.40889e-05
3.05354e-06
4.27737e-06
3.00694e-05
2.82254e-05
2.94941e-05
2.47013e-05
2.81367e-05
1.89419e-05
2.55369e-05
2.58741e-06
4.47122e-06
3.05437e-05
2.93249e-05
3.00791e-05
2.67499e-05
2.91557e-05
2.32277e-05
2.82638e-05
1.68033e-05
2.63799e-05
2.01489e-06
4.54982e-06
3.09757e-05
2.99682e-05
3.04751e-05
2.79399e-05
2.95784e-05
2.51978e-05
2.87554e-05
2.15273e-05
2.81082e-05
1.38002e-05
2.64102e-05
1.50553e-06
4.58618e-06
3.15176e-05
3.04729e-05
3.10129e-05
2.87449e-05
3.01593e-05
2.64044e-05
2.93133e-05
2.3733e-05
2.85963e-05
1.93749e-05
2.78958e-05
1.07517e-05
2.6033e-05
1.14643e-06
4.49431e-06
3.21898e-05
3.10007e-05
3.17453e-05
2.93974e-05
3.10203e-05
2.72948e-05
3.02867e-05
2.50419e-05
2.95716e-05
2.23449e-05
2.88009e-05
1.66948e-05
2.7927e-05
8.40977e-06
2.49945e-05
9.19347e-07
4.17545e-06
3.29581e-05
3.16096e-05
3.26189e-05
3.0025e-05
3.20749e-05
2.80593e-05
3.15361e-05
2.59829e-05
3.09631e-05
2.41239e-05
3.02169e-05
2.05605e-05
2.92555e-05
1.37862e-05
2.75937e-05
6.88033e-06
2.35192e-05
7.71401e-07
3.7926e-06
3.37771e-05
3.22978e-05
3.3564e-05
3.06857e-05
3.32137e-05
2.87913e-05
3.28883e-05
2.67837e-05
3.25069e-05
2.52792e-05
3.18902e-05
2.32265e-05
3.08923e-05
1.78897e-05
2.92421e-05
1.13641e-05
2.67289e-05
5.88126e-06
2.18056e-05
6.67846e-07
3.42684e-06
3.46069e-05
3.30401e-05
3.4524e-05
3.13929e-05
3.43582e-05
2.95341e-05
3.42327e-05
2.75491e-05
3.40411e-05
2.6121e-05
3.35876e-05
2.50448e-05
3.26468e-05
2.12538e-05
3.09645e-05
1.50079e-05
2.86231e-05
9.61978e-06
2.54744e-05
5.17817e-06
2.00781e-05
5.95242e-07
3.10788e-06
3.54159e-05
3.38048e-05
3.5459e-05
3.21364e-05
3.54601e-05
3.03006e-05
3.55103e-05
2.83252e-05
3.54909e-05
2.68329e-05
3.52015e-05
2.62636e-05
3.43646e-05
2.39625e-05
3.27181e-05
1.83402e-05
3.03964e-05
1.26517e-05
2.75723e-05
8.38516e-06
2.40489e-05
4.66983e-06
1.84719e-05
5.46332e-07
2.84053e-06
3.61805e-05
3.45629e-05
3.63418e-05
3.28952e-05
3.64905e-05
3.10858e-05
3.66925e-05
2.91243e-05
3.68253e-05
2.75168e-05
3.66902e-05
2.70925e-05
3.59782e-05
2.60343e-05
3.44189e-05
2.14365e-05
3.21359e-05
1.55219e-05
2.93948e-05
1.09046e-05
2.63015e-05
7.503e-06
2.26105e-05
4.30846e-06
1.70434e-05
5.1403e-07
2.62062e-06
3.68823e-05
3.52916e-05
3.71538e-05
3.36476e-05
3.74324e-05
3.18754e-05
3.77657e-05
2.99415e-05
3.80316e-05
2.82223e-05
3.80394e-05
2.77031e-05
3.74634e-05
2.75196e-05
3.60243e-05
2.42234e-05
3.3815e-05
1.83925e-05
3.11236e-05
1.32728e-05
2.81645e-05
9.66058e-06
2.49647e-05
6.87479e-06
2.12442e-05
4.05365e-06
1.58137e-05
4.90977e-07
2.44493e-06
3.7507e-05
3.59715e-05
3.78811e-05
3.43735e-05
3.82751e-05
3.26532e-05
3.87219e-05
3.07637e-05
3.91061e-05
2.89631e-05
3.92448e-05
2.82232e-05
3.88119e-05
2.85153e-05
3.75171e-05
2.65927e-05
3.5413e-05
2.12696e-05
3.278e-05
1.56981e-05
2.98821e-05
1.16357e-05
2.68512e-05
8.78015e-06
2.36502e-05
6.42656e-06
1.99901e-05
3.864e-06
1.47766e-05
4.72857e-07
2.31408e-06
3.80428e-05
3.6587e-05
3.85133e-05
3.50555e-05
3.90103e-05
3.34021e-05
3.95569e-05
3.15748e-05
4.00466e-05
2.97344e-05
4.03071e-05
2.87363e-05
4.00208e-05
2.91504e-05
3.8889e-05
2.84619e-05
3.69184e-05
2.40698e-05
3.43639e-05
1.82522e-05
3.15118e-05
1.36353e-05
2.85511e-05
1.04831e-05
2.55393e-05
8.15385e-06
2.24032e-05
6.09071e-06
1.88729e-05
3.71225e-06
1.39254e-05
4.57159e-07
2.2072e-06
3.84794e-05
3.7125e-05
3.90416e-05
3.56791e-05
3.96322e-05
3.41079e-05
4.02679e-05
3.23593e-05
4.08528e-05
3.05209e-05
4.12272e-05
2.92863e-05
4.1089e-05
2.95618e-05
4.01351e-05
2.98064e-05
3.83242e-05
2.6659e-05
3.58726e-05
2.09368e-05
3.30724e-05
1.57715e-05
3.01495e-05
1.21732e-05
2.72149e-05
9.66843e-06
2.42797e-05
7.68646e-06
2.12687e-05
5.82177e-06
1.79231e-05
3.58131e-06
1.32014e-05
4.43468e-07
2.11468e-06
3.88079e-05
3.75737e-05
3.94581e-05
3.62311e-05
4.01353e-05
3.47567e-05
4.08515e-05
3.31022e-05
4.15233e-05
3.1304e-05
4.20055e-05
2.98871e-05
4.20158e-05
2.98708e-05
4.12513e-05
3.06693e-05
3.9624e-05
2.88918e-05
3.7302e-05
2.36921e-05
3.45697e-05
1.80993e-05
3.16782e-05
1.39547e-05
2.87776e-05
1.11454e-05
2.5927e-05
9.06468e-06
2.31252e-05
7.31448e-06
2.02891e-05
5.59318e-06
1.71048e-05
3.46637e-06
1.25653e-05
4.31474e-07
2.03101e-06
3.90206e-05
3.79234e-05
3.97561e-05
3.66999e-05
4.05144e-05
3.53367e-05
4.13049e-05
3.37907e-05
4.20577e-05
3.20643e-05
4.26418e-05
3.05324e-05
4.27996e-05
3.01683e-05
4.22333e-05
3.11488e-05
4.08107e-05
3.0652e-05
3.86464e-05
2.64006e-05
3.60044e-05
2.06219e-05
3.31514e-05
1.5901e-05
3.02693e-05
1.26786e-05
2.74539e-05
1.03893e-05
2.47448e-05
8.58849e-06
2.21216e-05
7.00201e-06
1.94394e-05
5.39363e-06
1.63806e-05
3.3661e-06
1.1988e-05
4.21563e-07
1.95353e-06
3.91106e-05
3.8165e-05
3.99293e-05
3.70755e-05
4.07649e-05
3.58371e-05
4.1625e-05
3.44133e-05
4.2454e-05
3.27851e-05
4.31355e-05
3.12046e-05
4.34386e-05
3.05094e-05
4.30762e-05
3.13732e-05
4.18767e-05
3.1884e-05
3.98982e-05
2.89051e-05
3.73734e-05
2.33041e-05
3.45746e-05
1.80673e-05
3.17102e-05
1.43348e-05
2.89082e-05
1.17462e-05
2.62385e-05
9.79855e-06
2.37134e-05
8.19287e-06
2.12484e-05
6.73207e-06
1.8685e-05
5.21945e-06
1.57233e-05
3.28144e-06
1.14481e-05
4.14588e-07
1.88047e-06
3.90726e-05
3.8291e-05
3.99727e-05
3.73487e-05
4.08827e-05
3.62485e-05
4.18092e-05
3.49594e-05
4.27105e-05
3.34509e-05
4.34857e-05
3.18814e-05
4.39314e-05
3.0917e-05
4.37752e-05
3.1471e-05
4.2814e-05
3.26092e-05
4.10482e-05
3.10406e-05
3.86702e-05
2.60554e-05
3.59478e-05
2.04659e-05
3.31103e-05
1.61704e-05
3.03146e-05
1.3195e-05
2.76577e-05
1.10242e-05
2.51756e-05
9.31308e-06
2.28146e-05
7.8541e-06
2.04722e-05
6.4972e-06
1.80003e-05
5.07108e-06
1.51108e-05
3.2163e-06
1.09365e-05
4.11878e-07
1.80485e-06
3.89023e-05
3.82949e-05
3.98819e-05
3.75118e-05
4.08641e-05
3.65616e-05
4.18549e-05
3.54195e-05
4.28257e-05
3.40489e-05
4.36915e-05
3.25398e-05
4.42763e-05
3.13887e-05
4.4326e-05
3.15481e-05
4.36143e-05
3.29178e-05
4.20858e-05
3.26745e-05
3.98857e-05
2.87312e-05
3.72666e-05
2.30754e-05
3.44722e-05
1.82346e-05
3.16856e-05
1.47858e-05
2.90292e-05
1.23194e-05
2.65609e-05
1.0437e-05
2.42482e-05
8.90118e-06
2.20159e-05
7.56124e-06
1.97675e-05
6.29686e-06
1.73629e-05
4.95274e-06
1.4531e-05
3.17737e-06
1.04355e-05
4.15314e-07
1.72644e-06
3.85973e-05
3.81718e-05
3.96542e-05
3.75578e-05
4.07066e-05
3.67688e-05
4.17599e-05
3.5785e-05
4.27984e-05
3.45676e-05
4.37519e-05
3.31586e-05
4.44716e-05
3.19067e-05
4.47246e-05
3.16748e-05
4.4269e-05
3.29437e-05
4.29995e-05
3.37429e-05
4.10084e-05
3.11517e-05
3.85235e-05
2.58284e-05
3.57943e-05
2.05506e-05
3.30267e-05
1.6566e-05
3.03682e-05
1.37288e-05
2.78978e-05
1.16143e-05
2.5603e-05
9.94348e-06
2.34251e-05
8.54722e-06
2.12913e-05
7.3115e-06
1.91115e-05
6.13484e-06
1.67575e-05
4.87236e-06
1.39634e-05
3.17261e-06
9.93688e-06
4.24867e-07
1.64985e-06
3.8157e-05
3.79182e-05
3.92883e-05
3.74813e-05
4.04089e-05
3.68629e-05
4.15234e-05
3.60479e-05
4.26278e-05
3.49969e-05
4.36664e-05
3.3719e-05
4.45166e-05
3.24449e-05
4.49677e-05
3.18843e-05
4.47708e-05
3.28299e-05
4.37774e-05
3.42688e-05
4.20253e-05
3.31372e-05
3.97074e-05
2.85995e-05
3.70706e-05
2.31048e-05
3.43384e-05
1.85801e-05
3.16823e-05
1.52947e-05
2.92032e-05
1.28849e-05
2.69081e-05
1.10266e-05
2.47534e-05
9.5218e-06
2.2679e-05
8.24578e-06
2.06169e-05
7.10784e-06
1.84871e-05
6.01968e-06
1.61622e-05
4.83854e-06
1.33926e-05
3.2023e-06
9.45347e-06
4.40666e-07
1.57565e-06
3.75824e-05
3.75326e-05
3.87846e-05
3.72783e-05
3.99709e-05
3.68384e-05
4.11453e-05
3.62011e-05
4.23141e-05
3.53279e-05
4.34354e-05
3.42053e-05
4.44107e-05
3.29747e-05
4.50531e-05
3.21782e-05
4.51133e-05
3.2698e-05
4.44084e-05
3.43553e-05
4.29222e-05
3.45536e-05
4.08053e-05
3.12114e-05
3.8292e-05
2.58464e-05
3.56173e-05
2.08553e-05
3.2974e-05
1.70595e-05
3.0486e-05
1.42867e-05
2.81813e-05
1.21872e-05
2.60306e-05
1.05275e-05
2.3984e-05
9.16311e-06
2.19852e-05
7.99856e-06
1.99741e-05
6.95922e-06
1.78705e-05
5.96094e-06
1.55585e-05
4.85304e-06
1.28268e-05
3.26534e-06
8.99016e-06
4.63047e-07
1.5067e-06
3.68767e-05
3.70153e-05
3.81454e-05
3.69464e-05
3.93944e-05
3.66905e-05
4.0627e-05
3.62385e-05
4.18585e-05
3.55527e-05
4.30598e-05
3.4604e-05
4.41547e-05
3.34695e-05
4.49797e-05
3.25373e-05
4.52916e-05
3.26306e-05
4.48819e-05
3.41553e-05
4.36846e-05
3.53511e-05
4.1802e-05
3.34616e-05
3.94461e-05
2.86662e-05
3.68556e-05
2.33826e-05
3.42416e-05
1.9064e-05
3.17504e-05
1.58581e-05
2.94328e-05
1.34593e-05
2.72752e-05
1.15979e-05
2.5237e-05
1.01037e-05
2.32697e-05
8.86766e-06
2.1323e-05
7.81469e-06
1.93373e-05
6.87609e-06
1.72423e-05
5.96064e-06
1.49534e-05
4.91498e-06
1.22753e-05
3.36062e-06
8.55422e-06
4.91876e-07
1.44238e-06
3.60456e-05
3.63683e-05
3.7375e-05
3.64851e-05
3.86828e-05
3.64164e-05
3.99711e-05
3.61551e-05
4.12635e-05
3.56644e-05
4.25417e-05
3.4904e-05
4.375e-05
3.39057e-05
4.47478e-05
3.29305e-05
4.53024e-05
3.26657e-05
4.51892e-05
3.38301e-05
4.42981e-05
3.55809e-05
4.2681e-05
3.5167e-05
4.05179e-05
3.13943e-05
3.80427e-05
2.61196e-05
3.54796e-05
2.13354e-05
3.29964e-05
1.7638e-05
3.06677e-05
1.48772e-05
2.84978e-05
1.27638e-05
2.64564e-05
1.10982e-05
2.45011e-05
9.75291e-06
2.25878e-05
8.64445e-06
2.06668e-05
7.70496e-06
1.8688e-05
6.86069e-06
1.6609e-05
6.01813e-06
1.43573e-05
5.02198e-06
1.17458e-05
3.48578e-06
8.1495e-06
5.27272e-07
1.38257e-06
3.50965e-05
3.55962e-05
3.64799e-05
3.58958e-05
3.78415e-05
3.60147e-05
3.91825e-05
3.59471e-05
4.05328e-05
3.56572e-05
4.18843e-05
3.5096e-05
4.31994e-05
3.42635e-05
4.43588e-05
3.33237e-05
4.51443e-05
3.28042e-05
4.53235e-05
3.35134e-05
4.47502e-05
3.53804e-05
4.34257e-05
3.62158e-05
4.14909e-05
3.38186e-05
3.9165e-05
2.89671e-05
3.66792e-05
2.38652e-05
3.42203e-05
1.9665e-05
3.18874e-05
1.64773e-05
2.97044e-05
1.40564e-05
2.76532e-05
1.21749e-05
2.56978e-05
1.06831e-05
2.37987e-05
9.48413e-06
2.19122e-05
8.50426e-06
1.99978e-05
7.67196e-06
1.80308e-05
6.91198e-06
1.59809e-05
6.1307e-06
1.3779e-05
5.1714e-06
1.12449e-05
3.64054e-06
7.77823e-06
5.68794e-07
1.32975e-06
3.40389e-05
3.47055e-05
3.54687e-05
3.51819e-05
3.68781e-05
3.54859e-05
3.82677e-05
3.56125e-05
3.96721e-05
3.55265e-05
4.10925e-05
3.51721e-05
4.25068e-05
3.4527e-05
4.38158e-05
3.3684e-05
4.48179e-05
3.30214e-05
4.52804e-05
3.32898e-05
4.50297e-05
3.49317e-05
4.40196e-05
3.66042e-05
4.23467e-05
3.57256e-05
4.02063e-05
3.17613e-05
3.78286e-05
2.66136e-05
3.54156e-05
2.19624e-05
3.30901e-05
1.82971e-05
3.08978e-05
1.5509e-05
2.88343e-05
1.33621e-05
2.68716e-05
1.16841e-05
2.49746e-05
1.03607e-05
2.31037e-05
9.3081e-06
2.12243e-05
8.44995e-06
1.93194e-05
7.71454e-06
1.73761e-05
7.02724e-06
1.53677e-05
6.29584e-06
1.32266e-05
5.36304e-06
1.07778e-05
3.82183e-06
7.44925e-06
6.16041e-07
1.28386e-06
3.28843e-05
3.37049e-05
3.43516e-05
3.4349e-05
3.58018e-05
3.48327e-05
3.72346e-05
3.5151e-05
3.86886e-05
3.52693e-05
4.01726e-05
3.51264e-05
4.1678e-05
3.46833e-05
4.31236e-05
3.39831e-05
4.43259e-05
3.32796e-05
4.50581e-05
3.31921e-05
4.5128e-05
3.44119e-05
4.44479e-05
3.64409e-05
4.3067e-05
3.69578e-05
4.11484e-05
3.4285e-05
3.89127e-05
2.94842e-05
3.65719e-05
2.45202e-05
3.42706e-05
2.03722e-05
3.2077e-05
1.71566e-05
3.00028e-05
1.46901e-05
2.80296e-05
1.27815e-05
2.61272e-05
1.1298e-05
2.42603e-05
1.01417e-05
2.23975e-05
9.22774e-06
2.05261e-05
8.48039e-06
1.86414e-05
7.82977e-06
1.67342e-05
7.20414e-06
1.47782e-05
6.51251e-06
1.27077e-05
5.59352e-06
1.03578e-05
4.02594e-06
7.16367e-06
6.68832e-07
1.24222e-06
3.16463e-05
3.26049e-05
3.31411e-05
3.34048e-05
3.46239e-05
3.40596e-05
3.60934e-05
3.45642e-05
3.75913e-05
3.48844e-05
3.91322e-05
3.49544e-05
4.07195e-05
3.47229e-05
4.22882e-05
3.41979e-05
4.36729e-05
3.35379e-05
4.46574e-05
3.32114e-05
4.50397e-05
3.39536e-05
4.46975e-05
3.59134e-05
4.36336e-05
3.74652e-05
4.19717e-05
3.63067e-05
3.99143e-05
3.23137e-05
3.76761e-05
2.72957e-05
3.54205e-05
2.27192e-05
3.32381e-05
1.90354e-05
3.11586e-05
1.61914e-05
2.91753e-05
1.4003e-05
2.72641e-05
1.23194e-05
2.53938e-05
1.10271e-05
2.35365e-05
1.00291e-05
2.1681e-05
9.24168e-06
1.9827e-05
8.59239e-06
1.79744e-05
8.01527e-06
1.61148e-05
7.44123e-06
1.42223e-05
6.77702e-06
1.22372e-05
5.85856e-06
9.98882e-06
4.25204e-06
6.91496e-06
7.27145e-07
1.20451e-06
3.03396e-05
3.14183e-05
3.18512e-05
3.2359e-05
3.33573e-05
3.31734e-05
3.48557e-05
3.38557e-05
3.63905e-05
3.43723e-05
3.79812e-05
3.46536e-05
3.96401e-05
3.46385e-05
4.13176e-05
3.43104e-05
4.28657e-05
3.37586e-05
4.40821e-05
3.33126e-05
4.47626e-05
3.36274e-05
4.47588e-05
3.5231e-05
4.40298e-05
3.73275e-05
4.26565e-05
3.76385e-05
4.08141e-05
3.48811e-05
3.87123e-05
3.01894e-05
3.65284e-05
2.53247e-05
3.43743e-05
2.1179e-05
3.22991e-05
1.79007e-05
3.03093e-05
1.53787e-05
2.83889e-05
1.345e-05
2.65118e-05
1.19856e-05
2.4653e-05
1.08742e-05
2.28028e-05
1.0021e-05
2.09625e-05
9.34646e-06
1.91376e-05
8.78332e-06
1.73289e-05
8.26912e-06
1.55288e-05
7.73378e-06
1.37155e-05
7.08472e-06
1.1821e-05
6.15703e-06
9.66629e-06
4.50105e-06
6.70048e-06
7.91294e-07
1.17045e-06
2.89808e-05
3.01592e-05
3.04975e-05
3.12236e-05
3.20165e-05
3.21829e-05
3.35348e-05
3.30314e-05
3.50981e-05
3.37356e-05
3.67301e-05
3.42234e-05
3.84499e-05
3.44254e-05
4.0221e-05
3.43075e-05
4.19128e-05
3.39101e-05
4.33384e-05
3.34493e-05
4.42979e-05
3.34466e-05
4.46253e-05
3.45691e-05
4.42418e-05
3.6731e-05
4.31836e-05
3.81984e-05
4.15916e-05
3.69418e-05
3.96623e-05
3.30329e-05
3.75803e-05
2.81395e-05
3.5476e-05
2.35931e-05
3.34187e-05
1.9853e-05
3.14298e-05
1.69411e-05
2.95031e-05
1.47173e-05
2.76184e-05
1.30401e-05
2.57546e-05
1.1783e-05
2.39031e-05
1.08375e-05
2.20663e-05
1.01139e-05
2.02525e-05
9.53936e-06
1.84689e-05
9.05085e-06
1.6717e-05
8.58587e-06
1.49926e-05
8.07683e-06
1.32651e-05
7.43439e-06
1.14565e-05
6.4905e-06
9.38884e-06
4.77462e-06
6.52032e-06
8.62558e-07
1.13935e-06
2.75865e-05
2.88434e-05
2.90965e-05
3.00119e-05
3.06173e-05
3.10991e-05
3.21456e-05
3.20992e-05
3.37274e-05
3.29792e-05
3.53915e-05
3.36652e-05
3.71604e-05
3.40812e-05
3.90094e-05
3.418e-05
4.08243e-05
3.39678e-05
4.24352e-05
3.35754e-05
4.36504e-05
3.33836e-05
4.42948e-05
3.4036e-05
4.42588e-05
3.59088e-05
4.35354e-05
3.80455e-05
4.22263e-05
3.82902e-05
4.05061e-05
3.55975e-05
3.85594e-05
3.10543e-05
3.6531e-05
2.62606e-05
3.45094e-05
2.20784e-05
3.25324e-05
1.87251e-05
3.06052e-05
1.61517e-05
2.87151e-05
1.42155e-05
2.68455e-05
1.2776e-05
2.49893e-05
1.17093e-05
2.31499e-05
1.09128e-05
2.13373e-05
1.03048e-05
1.95625e-05
9.81739e-06
1.78337e-05
9.38869e-06
1.6155e-05
8.95998e-06
1.4514e-05
8.46895e-06
1.28698e-05
7.82734e-06
1.11427e-05
6.86156e-06
9.15625e-06
5.08019e-06
6.37605e-06
9.43574e-07
1.11561e-06
2.61746e-05
2.74875e-05
2.76653e-05
2.87391e-05
2.91765e-05
2.9935e-05
3.07043e-05
3.10693e-05
3.22939e-05
3.21103e-05
3.39789e-05
3.29828e-05
3.57841e-05
3.3606e-05
3.76951e-05
3.39221e-05
3.96125e-05
3.39139e-05
4.13832e-05
3.36505e-05
4.28277e-05
3.33899e-05
4.3769e-05
3.36684e-05
4.40743e-05
3.50713e-05
4.36974e-05
3.73666e-05
4.26985e-05
3.88274e-05
4.12227e-05
3.763e-05
3.94466e-05
3.38904e-05
3.75241e-05
2.91203e-05
3.55602e-05
2.45732e-05
3.361e-05
2.07645e-05
3.16916e-05
1.77868e-05
2.98012e-05
1.554e-05
2.79276e-05
1.3876e-05
2.60661e-05
1.26551e-05
2.42208e-05
1.17599e-05
2.24033e-05
1.10967e-05
2.06275e-05
1.05899e-05
1.89058e-05
1.01735e-05
1.72483e-05
9.7908e-06
1.56517e-05
9.38971e-06
1.4093e-05
8.91135e-06
1.25288e-05
8.26686e-06
1.08794e-05
7.27833e-06
8.97065e-06
5.42425e-06
6.28168e-06
1.04519e-06
1.09671e-06
2.47629e-05
2.61092e-05
2.62216e-05
2.74215e-05
2.77111e-05
2.87048e-05
2.92269e-05
2.99537e-05
3.0814e-05
3.11378e-05
3.25074e-05
3.21822e-05
3.43354e-05
3.3002e-05
3.62917e-05
3.35314e-05
3.82906e-05
3.37364e-05
4.01954e-05
3.36426e-05
4.18409e-05
3.34119e-05
4.30536e-05
3.34481e-05
4.36861e-05
3.43583e-05
4.36589e-05
3.64131e-05
4.29904e-05
3.86054e-05
4.17913e-05
3.89171e-05
4.02218e-05
3.6409e-05
3.84378e-05
3.20487e-05
3.65578e-05
2.73106e-05
3.46533e-05
2.30799e-05
3.27564e-05
1.96571e-05
3.08736e-05
1.70448e-05
2.90004e-05
1.51086e-05
2.71353e-05
1.36956e-05
2.52836e-05
1.26725e-05
2.34581e-05
1.19311e-05
2.16752e-05
1.13849e-05
1.99507e-05
1.09613e-05
1.82988e-05
1.0601e-05
1.67221e-05
1.02549e-05
1.52077e-05
9.87609e-06
1.37292e-05
9.40755e-06
1.22423e-05
8.76133e-06
1.06685e-05
7.75048e-06
8.8423e-06
5.83396e-06
6.22054e-06
1.14627e-06
1.11229e-06
2.33689e-05
2.47262e-05
2.47832e-05
2.60764e-05
2.62387e-05
2.74246e-05
2.77308e-05
2.87663e-05
2.93033e-05
3.00735e-05
3.09924e-05
3.12718e-05
3.2829e-05
3.22741e-05
3.48136e-05
3.30084e-05
3.68731e-05
3.3428e-05
3.88862e-05
3.35288e-05
4.0703e-05
3.34014e-05
4.21581e-05
3.3326e-05
4.30968e-05
3.38269e-05
4.34136e-05
3.54224e-05
4.30876e-05
3.7817e-05
4.21922e-05
3.93572e-05
4.08637e-05
3.83506e-05
3.92528e-05
3.48521e-05
3.74864e-05
3.0214e-05
3.56504e-05
2.56619e-05
3.37914e-05
2.17946e-05
3.19273e-05
1.87634e-05
3.00616e-05
1.65026e-05
2.81969e-05
1.4854e-05
2.63404e-05
1.36692e-05
2.45064e-05
1.28235e-05
2.27132e-05
1.22172e-05
2.09797e-05
1.17683e-05
1.93233e-05
1.14116e-05
1.7751e-05
1.10971e-05
1.62566e-05
1.0782e-05
1.4823e-05
1.04229e-05
1.34224e-05
9.96618e-06
1.20114e-05
9.32336e-06
1.05168e-05
8.29612e-06
8.75415e-06
6.22833e-06
6.28687e-06
1.23405e-06
1.13824e-06
2.20092e-05
2.33561e-05
2.33672e-05
2.47214e-05
2.47765e-05
2.61112e-05
2.6233e-05
2.75226e-05
2.77786e-05
2.89304e-05
2.94505e-05
3.02622e-05
3.12807e-05
3.14298e-05
3.32763e-05
3.23565e-05
3.53754e-05
3.29861e-05
3.74712e-05
3.32937e-05
3.94292e-05
3.33194e-05
4.10952e-05
3.32426e-05
4.23134e-05
3.34665e-05
4.29599e-05
3.45583e-05
4.298e-05
3.6732e-05
4.24082e-05
3.90091e-05
4.13519e-05
3.95027e-05
3.99488e-05
3.72793e-05
3.83279e-05
3.31411e-05
3.65869e-05
2.84693e-05
3.47859e-05
2.42063e-05
3.2955e-05
2.07297e-05
3.11066e-05
1.80901e-05
2.92488e-05
1.61566e-05
2.73915e-05
1.47708e-05
2.55504e-05
1.3791e-05
2.37461e-05
1.31018e-05
2.20001e-05
1.26087e-05
2.03327e-05
1.22386e-05
1.87548e-05
1.19374e-05
1.72647e-05
1.16624e-05
1.58519e-05
1.13756e-05
1.44974e-05
1.10386e-05
1.3174e-05
1.06013e-05
1.18409e-05
9.95925e-06
1.04132e-05
8.81967e-06
8.79796e-06
6.55905e-06
6.39488e-06
1.31122e-06
1.16043e-06
2.06991e-05
2.20158e-05
2.199e-05
2.33743e-05
2.33416e-05
2.47822e-05
2.47503e-05
2.62394e-05
2.62568e-05
2.77238e-05
2.78977e-05
2.91661e-05
2.97068e-05
3.04787e-05
3.16961e-05
3.15817e-05
3.3814e-05
3.24117e-05
3.59674e-05
3.29286e-05
3.80366e-05
3.31378e-05
3.98803e-05
3.31425e-05
4.1347e-05
3.32266e-05
4.23016e-05
3.38908e-05
4.26619e-05
3.56075e-05
4.24256e-05
3.80824e-05
4.16674e-05
3.97758e-05
4.05049e-05
3.90681e-05
3.9063e-05
3.58789e-05
3.74464e-05
3.1406e-05
3.57271e-05
2.68767e-05
3.39472e-05
2.29708e-05
3.21291e-05
1.99048e-05
3.02872e-05
1.76331e-05
2.84351e-05
1.60013e-05
2.65907e-05
1.48527e-05
2.47765e-05
1.4054e-05
2.30169e-05
1.34963e-05
2.13348e-05
1.30959e-05
1.97443e-05
1.2792e-05
1.82483e-05
1.2539e-05
1.68406e-05
1.23005e-05
1.55082e-05
1.20443e-05
1.42323e-05
1.17378e-05
1.2987e-05
1.1309e-05
1.17264e-05
1.05654e-05
1.04395e-05
9.26698e-06
8.90282e-06
6.84295e-06
6.49053e-06
1.37956e-06
1.18074e-06
1.94525e-05
2.07211e-05
2.06665e-05
2.20524e-05
2.19498e-05
2.34558e-05
2.32992e-05
2.49343e-05
2.47541e-05
2.647e-05
2.63507e-05
2.79982e-05
2.81238e-05
2.9433e-05
3.00896e-05
3.06928e-05
3.22059e-05
3.17088e-05
3.43921e-05
3.24302e-05
3.65432e-05
3.2838e-05
3.85309e-05
3.29811e-05
4.02121e-05
3.3043e-05
4.14471e-05
3.34128e-05
4.21331e-05
3.46206e-05
4.22351e-05
3.68643e-05
4.17937e-05
3.92513e-05
4.09013e-05
4.00166e-05
3.96715e-05
3.8165e-05
3.82106e-05
3.43062e-05
3.65998e-05
2.97464e-05
3.48923e-05
2.54837e-05
3.31206e-05
2.19793e-05
3.13064e-05
1.93158e-05
2.9468e-05
1.7388e-05
2.7626e-05
1.60299e-05
2.58053e-05
1.5091e-05
2.40329e-05
1.44455e-05
2.23344e-05
1.39964e-05
2.07273e-05
1.36743e-05
1.92183e-05
1.3428e-05
1.78052e-05
1.32198e-05
1.64792e-05
1.30193e-05
1.5227e-05
1.28018e-05
1.40308e-05
1.25077e-05
1.28641e-05
1.19796e-05
1.17393e-05
1.10894e-05
1.05351e-05
9.65607e-06
9.00498e-06
7.0902e-06
6.57715e-06
1.44e-06
1.20003e-06
1.82806e-05
1.9486e-05
1.94098e-05
2.07716e-05
2.06153e-05
2.21491e-05
2.18952e-05
2.36251e-05
2.3287e-05
2.51867e-05
2.48263e-05
2.67747e-05
2.65486e-05
2.83068e-05
2.84737e-05
2.97011e-05
3.05682e-05
3.0885e-05
3.27633e-05
3.17999e-05
3.49675e-05
3.241e-05
3.70661e-05
3.27257e-05
3.89262e-05
3.28544e-05
4.04092e-05
3.30709e-05
4.13988e-05
3.3846e-05
4.18327e-05
3.56244e-05
4.17186e-05
3.81621e-05
4.11199e-05
4.00621e-05
4.01333e-05
3.97384e-05
3.88603e-05
3.69364e-05
3.73872e-05
3.26947e-05
3.57765e-05
2.8238e-05
3.40705e-05
2.43267e-05
3.22988e-05
2.12375e-05
3.04851e-05
1.89608e-05
2.86536e-05
1.73474e-05
2.68317e-05
1.62323e-05
2.50492e-05
1.54718e-05
2.33347e-05
1.49536e-05
2.1709e-05
1.45967e-05
2.01824e-05
1.43427e-05
1.87566e-05
1.41498e-05
1.74265e-05
1.3987e-05
1.61826e-05
1.38314e-05
1.50126e-05
1.36276e-05
1.39011e-05
1.32337e-05
1.28663e-05
1.25642e-05
1.18252e-05
1.15477e-05
1.06363e-05
9.99712e-06
9.10262e-06
7.30572e-06
6.65795e-06
1.49322e-06
1.2185e-06
1.71923e-05
1.83226e-05
1.82309e-05
1.95465e-05
1.93511e-05
2.08787e-05
2.05522e-05
2.23297e-05
2.18702e-05
2.38919e-05
2.334e-05
2.55131e-05
2.49972e-05
2.71161e-05
2.68652e-05
2.86201e-05
2.89186e-05
2.99505e-05
3.10997e-05
3.10431e-05
3.33291e-05
3.185e-05
3.55058e-05
3.23555e-05
3.75087e-05
3.26115e-05
3.92042e-05
3.27961e-05
4.0469e-05
3.32743e-05
4.12197e-05
3.4543e-05
4.14342e-05
3.68137e-05
4.11461e-05
3.93206e-05
4.04295e-05
4.04205e-05
3.93756e-05
3.90233e-05
3.80708e-05
3.55291e-05
3.65841e-05
3.11515e-05
3.49663e-05
2.6937e-05
3.32548e-05
2.3425e-05
3.14795e-05
2.07517e-05
2.96688e-05
1.88326e-05
2.78532e-05
1.75e-05
2.60654e-05
1.65927e-05
2.43372e-05
1.59816e-05
2.26927e-05
1.55716e-05
2.11461e-05
1.52951e-05
1.97028e-05
1.51038e-05
1.83612e-05
1.4964e-05
1.71151e-05
1.48511e-05
1.59565e-05
1.4709e-05
1.48771e-05
1.44044e-05
1.38945e-05
1.38707e-05
1.29427e-05
1.30772e-05
1.19232e-05
1.19504e-05
1.07378e-05
1.0296e-05
9.19711e-06
7.49332e-06
6.73398e-06
1.54003e-06
1.23628e-06
1.61938e-05
1.724e-05
1.71381e-05
1.83896e-05
1.81673e-05
1.96597e-05
1.92823e-05
2.10649e-05
2.05172e-05
2.26038e-05
2.19066e-05
2.4232e-05
2.34858e-05
2.58783e-05
2.52811e-05
2.74653e-05
2.72748e-05
2.89181e-05
2.94195e-05
3.01685e-05
3.16475e-05
3.11602e-05
3.38708e-05
3.18592e-05
3.59806e-05
3.22788e-05
3.78513e-05
3.25228e-05
3.93578e-05
3.28476e-05
4.04026e-05
3.369e-05
4.09382e-05
3.54798e-05
4.09688e-05
3.80565e-05
4.05435e-05
4.0189e-05
3.97374e-05
4.03178e-05
3.86316e-05
3.79952e-05
3.72979e-05
3.4075e-05
3.57933e-05
2.97591e-05
3.41628e-05
2.58806e-05
3.24425e-05
2.27911e-05
3.06655e-05
2.05156e-05
2.88659e-05
1.8919e-05
2.70798e-05
1.78282e-05
2.53421e-05
1.70961e-05
2.36804e-05
1.66123e-05
2.21131e-05
1.62969e-05
2.06494e-05
1.60937e-05
1.92914e-05
1.59632e-05
1.8036e-05
1.58779e-05
1.68787e-05
1.57775e-05
1.58163e-05
1.55338e-05
1.48633e-05
1.50893e-05
1.3962e-05
1.44311e-05
1.30367e-05
1.35284e-05
1.2026e-05
1.23039e-05
1.0839e-05
1.05573e-05
9.28856e-06
7.65601e-06
6.80595e-06
1.58079e-06
1.25377e-06
1.52886e-05
1.62449e-05
1.61371e-05
1.73105e-05
1.7072e-05
1.8505e-05
1.80954e-05
1.98466e-05
1.92401e-05
2.13401e-05
2.05394e-05
2.29496e-05
2.2029e-05
2.46119e-05
2.37374e-05
2.62543e-05
2.56541e-05
2.7803e-05
2.77413e-05
2.91879e-05
2.99424e-05
3.03469e-05
3.21821e-05
3.12335e-05
3.43637e-05
3.1834e-05
3.63716e-05
3.21988e-05
3.80833e-05
3.24919e-05
3.9393e-05
3.3048e-05
4.02334e-05
3.43324e-05
4.05824e-05
3.65893e-05
4.04621e-05
3.92062e-05
3.99279e-05
4.06768e-05
3.90504e-05
3.98156e-05
3.78993e-05
3.67879e-05
3.65354e-05
3.26828e-05
3.50093e-05
2.85771e-05
3.33633e-05
2.50935e-05
3.16357e-05
2.24265e-05
2.98645e-05
2.05168e-05
2.80891e-05
1.92006e-05
2.6348e-05
1.8315e-05
2.46728e-05
1.77328e-05
2.30858e-05
1.73602e-05
2.16007e-05
1.71306e-05
2.02231e-05
1.69962e-05
1.89534e-05
1.69248e-05
1.77904e-05
1.68508e-05
1.67344e-05
1.6648e-05
1.57962e-05
1.62636e-05
1.49225e-05
1.56928e-05
1.40515e-05
1.49242e-05
1.31396e-05
1.39247e-05
1.21314e-05
1.26132e-05
1.09392e-05
1.07847e-05
9.3773e-06
7.79637e-06
6.87449e-06
1.61562e-06
1.27048e-06
1.44781e-05
1.53415e-05
1.52311e-05
1.63168e-05
1.60703e-05
1.74251e-05
1.69988e-05
1.86884e-05
1.8048e-05
2.01171e-05
1.92501e-05
2.16842e-05
2.06403e-05
2.33358e-05
2.22494e-05
2.50053e-05
2.40732e-05
2.66221e-05
2.60834e-05
2.81159e-05
2.82339e-05
2.94205e-05
3.04608e-05
3.04811e-05
3.26805e-05
3.12658e-05
3.47877e-05
3.17872e-05
3.66662e-05
3.21391e-05
3.82068e-05
3.25525e-05
3.93283e-05
3.34279e-05
3.9986e-05
3.51868e-05
4.01765e-05
3.77695e-05
3.99322e-05
4.01327e-05
3.93088e-05
4.07641e-05
3.83696e-05
3.90172e-05
3.71749e-05
3.55266e-05
3.5779e-05
3.14377e-05
3.42295e-05
2.76483e-05
3.25696e-05
2.45873e-05
3.08415e-05
2.23216e-05
2.90883e-05
2.07346e-05
2.73523e-05
1.96583e-05
2.5669e-05
1.8949e-05
2.40654e-05
1.84978e-05
2.25595e-05
1.82257e-05
2.11609e-05
1.80736e-05
1.98736e-05
1.80035e-05
1.86998e-05
1.79427e-05
1.76425e-05
1.77655e-05
1.6709e-05
1.7421e-05
1.5848e-05
1.69078e-05
1.50074e-05
1.62242e-05
1.41537e-05
1.53573e-05
1.32477e-05
1.42715e-05
1.22377e-05
1.28825e-05
1.1038e-05
1.09815e-05
9.46356e-06
7.91673e-06
6.94008e-06
1.64561e-06
1.28707e-06
1.37619e-05
1.45313e-05
1.4421e-05
1.54127e-05
1.51649e-05
1.6428e-05
1.59974e-05
1.76016e-05
1.6948e-05
1.89492e-05
1.80478e-05
2.04531e-05
1.93314e-05
2.20688e-05
2.08307e-05
2.37378e-05
2.2548e-05
2.53941e-05
2.44634e-05
2.69689e-05
2.6541e-05
2.83944e-05
2.87283e-05
2.96101e-05
3.09534e-05
3.05715e-05
3.3123e-05
3.12658e-05
3.5129e-05
3.17356e-05
3.68632e-05
3.21257e-05
3.82359e-05
3.27365e-05
3.91845e-05
3.4002e-05
3.96824e-05
3.62051e-05
3.97388e-05
3.8901e-05
3.93906e-05
4.07496e-05
3.869e-05
4.04927e-05
3.76933e-05
3.80417e-05
3.64551e-05
3.43193e-05
3.50266e-05
3.0405e-05
3.34554e-05
2.69991e-05
3.17879e-05
2.43585e-05
3.0071e-05
2.24558e-05
2.83508e-05
2.11475e-05
2.66672e-05
2.02784e-05
2.50518e-05
1.97234e-05
2.35273e-05
1.93901e-05
2.21078e-05
1.92058e-05
2.08014e-05
1.91241e-05
1.96132e-05
1.90646e-05
1.8549e-05
1.89002e-05
1.76126e-05
1.85802e-05
1.67541e-05
1.81041e-05
1.59283e-05
1.7475e-05
1.51084e-05
1.66906e-05
1.42638e-05
1.57361e-05
1.33586e-05
1.45733e-05
1.2344e-05
1.31155e-05
1.11354e-05
1.11504e-05
9.54761e-06
8.01888e-06
7.00297e-06
1.67076e-06
1.30337e-06
1.31377e-05
1.38142e-05
1.37062e-05
1.46005e-05
1.43565e-05
1.55188e-05
1.50936e-05
1.6595e-05
1.59448e-05
1.78492e-05
1.69393e-05
1.9272e-05
1.81112e-05
2.08292e-05
1.94931e-05
2.24712e-05
2.10928e-05
2.41385e-05
2.28981e-05
2.57654e-05
2.48828e-05
2.72847e-05
2.70054e-05
2.86323e-05
2.92054e-05
2.97554e-05
3.14017e-05
3.06238e-05
3.3496e-05
3.12451e-05
3.53843e-05
3.16982e-05
3.69733e-05
3.2186e-05
3.81877e-05
3.30702e-05
3.89813e-05
3.47634e-05
3.93406e-05
3.7309e-05
3.92821e-05
3.98715e-05
3.88433e-05
4.10277e-05
3.80718e-05
3.9946e-05
3.70194e-05
3.70065e-05
3.57384e-05
3.32548e-05
3.42795e-05
2.96306e-05
3.26927e-05
2.66356e-05
3.10288e-05
2.43888e-05
2.93376e-05
2.28058e-05
2.76637e-05
2.174e-05
2.60434e-05
2.10526e-05
2.45045e-05
2.06362e-05
2.30659e-05
2.04031e-05
2.17399e-05
2.02965e-05
2.05354e-05
2.02263e-05
1.94599e-05
2.00631e-05
1.85152e-05
1.97552e-05
1.76517e-05
1.93011e-05
1.68299e-05
1.87056e-05
1.60277e-05
1.79727e-05
1.52197e-05
1.70983e-05
1.43784e-05
1.60656e-05
1.3471e-05
1.48342e-05
1.24499e-05
1.33155e-05
1.12315e-05
1.1294e-05
9.62971e-06
8.10476e-06
7.06362e-06
1.69156e-06
1.31906e-06
1.26029e-05
1.31883e-05
1.30841e-05
1.38803e-05
1.36441e-05
1.47002e-05
1.42877e-05
1.56745e-05
1.50401e-05
1.68264e-05
1.59291e-05
1.81542e-05
1.69868e-05
1.96332e-05
1.82465e-05
2.12242e-05
1.97202e-05
2.28749e-05
2.14028e-05
2.45251e-05
2.32774e-05
2.61095e-05
2.53124e-05
2.75627e-05
2.74589e-05
2.88268e-05
2.96482e-05
2.98602e-05
3.17923e-05
3.06463e-05
3.37943e-05
3.12173e-05
3.55612e-05
3.1696e-05
3.70102e-05
3.23464e-05
3.80795e-05
3.35685e-05
3.87354e-05
3.56783e-05
3.89738e-05
3.84011e-05
3.88143e-05
4.06008e-05
3.82925e-05
4.09921e-05
3.74533e-05
3.9228e-05
3.63473e-05
3.60179e-05
3.50262e-05
3.24011e-05
3.35429e-05
2.91353e-05
3.19513e-05
2.65456e-05
3.0305e-05
2.46556e-05
2.86532e-05
2.3354e-05
2.70372e-05
2.25015e-05
2.54901e-05
2.19769e-05
2.40359e-05
2.16763e-05
2.26915e-05
2.15298e-05
2.14695e-05
2.14365e-05
2.038e-05
2.12636e-05
1.94227e-05
2.0957e-05
1.8549e-05
2.05127e-05
1.77233e-05
1.99358e-05
1.69276e-05
1.9233e-05
1.61399e-05
1.84071e-05
1.53375e-05
1.74524e-05
1.4496e-05
1.63501e-05
1.35841e-05
1.50579e-05
1.25554e-05
1.34854e-05
1.13263e-05
1.14148e-05
9.71006e-06
8.17609e-06
7.12191e-06
1.70833e-06
1.33463e-06
1.21541e-05
1.26511e-05
1.25521e-05
1.32507e-05
1.30252e-05
1.39728e-05
1.35783e-05
1.48435e-05
1.42344e-05
1.58877e-05
1.50189e-05
1.71103e-05
1.59625e-05
1.84957e-05
1.70977e-05
2.00144e-05
1.84401e-05
2.1623e-05
1.99909e-05
2.32681e-05
2.1741e-05
2.48883e-05
2.36686e-05
2.64189e-05
2.5736e-05
2.77994e-05
2.78863e-05
2.89808e-05
3.00433e-05
2.99306e-05
3.21186e-05
3.06486e-05
3.4023e-05
3.11978e-05
3.56705e-05
3.17512e-05
3.69885e-05
3.26292e-05
3.79265e-05
3.42287e-05
3.84603e-05
3.66851e-05
3.8591e-05
3.93873e-05
3.83388e-05
4.1054e-05
3.77383e-05
4.07071e-05
3.68346e-05
3.84471e-05
3.56783e-05
3.51646e-05
3.43233e-05
3.17987e-05
3.28259e-05
2.89173e-05
3.12433e-05
2.67094e-05
2.96287e-05
2.51396e-05
2.80287e-05
2.40874e-05
2.64816e-05
2.34258e-05
2.50172e-05