/*--------------------------------*- C++ -*----------------------------------*\
  =========                 |
  \\      /  F ield         | OpenFOAM: The Open Source CFD Toolbox
   \\    /   O peration     | Website:  https://openfoam.org
    \\  /    A nd           | Version:  7
     \\/     M anipulation  |
\*---------------------------------------------------------------------------*/
FoamFile
{
    version     2.0;
    format      ascii;
    class       volScalarField;
    location    "20000";
    object      nut;
}
// * * * * * * * * * * * * * * * * * * * * * * * * * * * * * * * * * * * * * //

dimensions      [0 2 -1 0 0 0 0];

internalField   nonuniform List<scalar> 
10981
(
3.03531e-07
1.11965e-05
2.97372e-07
3.13181e-07
2.16384e-05
1.12656e-05
1.10378e-05
2.73728e-07
3.2462e-07
3.2287e-05
2.21246e-05
2.07516e-05
1.07761e-05
1.0722e-05
2.45259e-07
3.46184e-07
4.46173e-05
3.32726e-05
3.09099e-05
2.13219e-05
1.96929e-05
9.95786e-06
1.08484e-05
2.0252e-07
3.59162e-07
5.99467e-05
4.58246e-05
4.33684e-05
3.24342e-05
2.98637e-05
1.97578e-05
1.96907e-05
8.91961e-06
1.11585e-05
1.49778e-07
3.56099e-07
7.93987e-05
6.08842e-05
5.96869e-05
4.49283e-05
4.34557e-05
3.01239e-05
3.10459e-05
1.79858e-05
2.0622e-05
7.87127e-06
1.16285e-05
1.05829e-07
3.40752e-07
0.000103645
7.94563e-05
8.09767e-05
5.96473e-05
6.21186e-05
4.18544e-05
4.75144e-05
2.71907e-05
3.43665e-05
1.67831e-05
2.25706e-05
7.19612e-06
1.21396e-05
7.74446e-08
3.15679e-07
0.000132889
0.000102265
0.000107704
7.74115e-05
8.67044e-05
5.56126e-05
7.04629e-05
3.74016e-05
5.49488e-05
2.51756e-05
3.95379e-05
1.67739e-05
2.49325e-05
6.78531e-06
1.2053e-05
6.09419e-08
2.81925e-07
0.000166931
0.000129647
0.000139788
9.8896e-05
0.000117258
7.20632e-05
0.000100038
4.92869e-05
8.29967e-05
3.38572e-05
6.44785e-05
2.52596e-05
4.46204e-05
1.75338e-05
2.5939e-05
6.41643e-06
1.17227e-05
5.1167e-08
2.51516e-07
0.000205313
0.000161571
0.000176765
0.000124505
0.000153256
9.17966e-05
0.000135609
6.34614e-05
0.000117778
4.34852e-05
9.70752e-05
3.33327e-05
7.2452e-05
2.68485e-05
4.66701e-05
1.83657e-05
2.60986e-05
6.05785e-06
1.13591e-05
4.50693e-08
2.27433e-07
0.000247437
0.000197764
0.000217998
0.000154351
0.000193947
0.000115247
0.000176249
8.04846e-05
0.000158117
5.46702e-05
0.000136044
4.15595e-05
0.000107689
3.52078e-05
7.52592e-05
2.90157e-05
4.69219e-05
1.88508e-05
2.60227e-05
5.73896e-06
1.10577e-05
4.15185e-08
2.09702e-07
0.000292633
0.000237689
0.000262768
0.0001883
0.00023854
0.000142643
0.00022098
0.000100844
0.000202886
6.80236e-05
0.000180067
5.04504e-05
0.000148978
4.31801e-05
0.000111053
3.82056e-05
7.51179e-05
3.10783e-05
4.66804e-05
1.89118e-05
2.5991e-05
5.51456e-06
1.08516e-05
3.99369e-08
1.97942e-07
0.000340221
0.000280736
0.00031034
0.000225974
0.000286219
0.000173986
0.000268934
0.000124884
0.000251088
8.41207e-05
0.000227989
6.05382e-05
0.000195021
5.117e-05
0.000152879
4.65624e-05
0.000110244
4.15814e-05
7.41696e-05
3.25262e-05
4.65272e-05
1.88214e-05
2.60883e-05
5.4073e-06
1.07466e-05
3.96811e-08
1.91238e-07
0.000389508
0.000326308
0.000359998
0.000266886
0.000336222
0.000209071
0.000319314
0.000152765
0.00030183
0.000103486
0.000278812
7.24099e-05
0.00024472
5.95457e-05
0.00019953
5.45592e-05
0.000151366
5.07631e-05
0.000108221
4.46449e-05
7.33799e-05
3.33956e-05
4.66161e-05
1.88088e-05
2.63197e-05
5.39449e-06
1.07419e-05
3.99355e-08
1.88478e-07
0.000439834
0.000373763
0.000411031
0.000310482
0.000387837
0.000247551
0.000371366
0.000184482
0.000354374
0.000126498
0.000331642
8.66676e-05
0.000297123
6.87224e-05
0.00024995
6.25133e-05
0.000197472
5.91625e-05
0.000148129
5.5133e-05
0.000106387
4.69926e-05
7.30058e-05
3.40635e-05
4.69439e-05
1.89242e-05
2.66849e-05
5.41718e-06
1.08247e-05
4.03847e-08
1.88067e-07
0.000490542
0.000422475
0.000462769
0.000356168
0.000440355
0.000288953
0.000424411
0.000219835
0.000407991
0.000153415
0.000385777
0.00010392
0.000351383
7.91985e-05
0.00030318
7.06821e-05
0.00024758
6.72135e-05
0.000193079
6.43689e-05
0.000145022
5.90903e-05
0.000105154
4.88243e-05
7.30554e-05
3.47154e-05
4.75177e-05
1.90783e-05
2.72038e-05
5.45482e-06
1.09673e-05
4.08413e-08
1.88456e-07
0.000540971
0.000471817
0.000514548
0.000403365
0.000493123
0.000332777
0.000477816
0.000258522
0.000462059
0.000184298
0.000440547
0.000124711
0.000406758
9.15627e-05
0.000358362
7.93507e-05
0.000300785
7.52117e-05
0.000242229
7.28269e-05
0.000188647
6.96582e-05
0.000142679
6.23798e-05
0.000104588
5.04059e-05
7.35696e-05
3.53094e-05
4.84285e-05
1.92365e-05
2.7892e-05
5.48935e-06
1.11337e-05
4.13364e-08
1.88919e-07
0.00059051
0.000521157
0.000565709
0.000451449
0.000545497
0.000378433
0.000530947
0.00030008
0.000515944
0.000219046
0.000495337
0.00014946
0.00046256
0.000106466
0.000414722
8.88962e-05
0.000356236
8.33612e-05
0.000294749
8.0924e-05
0.00023656
7.89756e-05
0.000185064
7.45055e-05
0.000141252
6.51822e-05
0.000104777
5.17668e-05
7.47048e-05
3.58289e-05
4.9701e-05
1.93687e-05
2.8658e-05
5.52167e-06
1.13065e-05
4.18482e-08
1.8916e-07
0.000638522
0.000569893
0.000615637
0.000499801
0.000596839
0.000425333
0.000583198
0.000344002
0.000569092
0.000257354
0.00054954
0.000178414
0.000518148
0.000124575
0.000471534
9.98186e-05
0.000413114
9.1849e-05
0.000349825
8.89702e-05
0.000288025
8.74954e-05
0.000231724
8.52011e-05
0.000182612
7.87039e-05
0.000140884
6.75769e-05
0.000105929
5.2928e-05
7.64612e-05
3.62522e-05
5.11389e-05
1.94671e-05
2.94614e-05
5.55341e-06
1.14754e-05
4.24358e-08
1.89476e-07
0.000684422
0.000617399
0.000663704
0.000547821
0.000646546
0.000472867
0.000633968
0.00038972
0.000620915
0.00029882
0.000602599
0.000211609
0.000572895
0.000146514
0.000528117
0.000112744
0.000470662
0.000100924
0.000406655
9.71665e-05
0.000342298
9.56239e-05
0.000282028
9.46239e-05
0.000228173
9.08506e-05
0.000181516
8.23215e-05
0.000141841
6.96199e-05
0.000107997
5.38838e-05
7.8507e-05
3.65822e-05
5.26643e-05
1.954e-05
3.02821e-05
5.58533e-06
1.16407e-05
4.33113e-08
1.89436e-07
0.000727647
0.000663097
0.000709331
0.000594916
0.000694025
0.000520438
0.000682706
0.000436603
0.000670844
0.000342882
0.000653965
0.000248875
0.000626242
0.000172771
0.000583818
0.000128397
0.00052816
0.000110962
0.000464477
0.000105649
0.000398625
0.000103695
0.0003353
0.000103196
0.000277383
0.000101636
0.000226232
9.57956e-05
0.000182088
8.54336e-05
0.000144026
7.13325e-05
0.000110506
5.46515e-05
8.06943e-05
3.68229e-05
5.4236e-05
1.95937e-05
3.11119e-05
5.63529e-06
1.17934e-05
4.48102e-08
1.88549e-07
0.000767655
0.000706414
0.000751969
0.000640498
0.000738714
0.000567427
0.000728852
0.00048402
0.000718346
0.00038893
0.000703108
0.000289817
0.000677644
0.000203616
0.000638024
0.000147537
0.000584926
0.000122502
0.000522542
0.000114567
0.000456253
0.000111935
0.000390843
0.000111345
0.000329631
0.000111182
0.000274533
0.000107931
0.000226255
0.000100103
0.000184188
8.80854e-05
0.000146814
7.27468e-05
0.000113224
5.52525e-05
8.29438e-05
3.69997e-05
5.58148e-05
1.96746e-05
3.19202e-05
5.73249e-06
1.19195e-05
4.73083e-08
1.87981e-07
0.000803965
0.00074681
0.000791098
0.000683993
0.000780098
0.000613238
0.00077188
0.000531336
0.000762932
0.000436281
0.000749517
0.000333869
0.000726569
0.000239073
0.00069017
0.000170865
0.000640278
0.000136246
0.000580119
0.000124168
0.00051443
0.000120469
0.000447937
0.000119422
0.000384275
0.000119828
0.000325855
0.000118758
0.000273881
0.000113489
0.000228078
0.000103829
0.00018707
9.03285e-05
0.000149887
7.38984e-05
0.000116012
5.5718e-05
8.51766e-05
3.7179e-05
5.73244e-05
1.98589e-05
3.26542e-05
5.89978e-06
1.20408e-05
5.08316e-08
1.87928e-07
0.000836147
0.000783791
0.000826261
0.000724854
0.000817697
0.00065728
0.000811313
0.000577898
0.000804113
0.000484222
0.000792716
0.00038034
0.00077253
0.000278874
0.000739706
0.000198941
0.000693595
0.000153016
0.000636493
0.00013487
0.000572415
0.000129388
0.000505849
0.000127681
0.000440639
0.000128018
0.000379608
0.000128392
0.000324445
0.000125561
0.000275257
0.000118368
0.000230858
0.000107039
0.000190303
9.22087e-05
0.000153038
7.4833e-05
0.000118738
5.61338e-05
8.72689e-05
3.74827e-05
5.86614e-05
2.02012e-05
3.33214e-05
6.13876e-06
1.21656e-05
5.55377e-08
1.88379e-07
0.000863854
0.000816909
0.000857059
0.000762574
0.000851089
0.000698997
0.000846724
0.000623097
0.000841461
0.000532036
0.000832269
0.000428439
0.000815058
0.000322479
0.000786119
0.000232043
0.000744292
0.000173686
0.000691
0.000147301
0.000629478
0.000138832
0.000563844
0.000136264
0.000498021
0.000136113
0.000435163
0.000137113
0.000377386
0.000136374
0.000325231
0.00013162
0.000277745
0.000122642
0.000234058
0.000109796
0.000193613
9.37806e-05
0.000156068
7.5648e-05
0.000121234
5.66588e-05
8.90536e-05
3.80135e-05
5.98142e-05
2.07264e-05
3.3942e-05
6.45408e-06
1.22932e-05
6.16635e-08
1.89891e-07
0.000886809
0.000845789
0.000883178
0.000796699
0.000879925
0.000737858
0.000877749
0.000666315
0.000874584
0.000579017
0.000867791
0.000477335
0.00085374
0.000369131
0.00082894
0.000270109
0.000791813
0.000199027
0.000742993
0.000162288
0.000684909
0.000149098
0.000621191
0.000145232
0.000555698
0.000144389
0.000491846
0.000145369
0.000432112
0.000146042
0.000377462
0.000143582
0.00032725
0.000137
0.000280723
0.000126382
0.000237333
0.000112161
0.00019676
9.51577e-05
0.000158767
7.65331e-05
0.000123274
5.74523e-05
9.05087e-05
3.88197e-05
6.08383e-05
2.14529e-05
3.45227e-05
6.85036e-06
1.24339e-05
6.92932e-08
1.92081e-07
0.000904818
0.000870106
0.000904386
0.000826806
0.000903922
0.000773376
0.000904082
0.00070699
0.000903175
0.000624476
0.000898936
0.000526209
0.000888213
0.000417945
0.000867746
0.000312731
0.000835655
0.00022961
0.000791864
0.000180791
0.000738016
0.000160713
0.000677161
0.000154653
0.000612961
0.000153006
0.000548966
0.000153514
0.000487991
0.00015482
0.000431384
0.000154329
0.000378858
0.000150068
0.000329814
0.000141787
0.000283769
0.00012966
0.000240399
0.000114248
0.000199468
9.65527e-05
0.000160869
7.76907e-05
0.000124834
5.8592e-05
9.17388e-05
3.9942e-05
6.17503e-05
2.23813e-05
3.50661e-05
7.32099e-06
1.25807e-05
7.83856e-08
1.9477e-07
0.000917807
0.000889643
0.000920535
0.000852556
0.000922909
0.000805098
0.000925498
0.000744578
0.000926981
0.000667764
0.00092543
0.000574224
0.000918169
0.000467913
0.000902177
0.000359146
0.000875371
0.000265642
0.00083707
0.000203772
0.000788155
0.000174463
0.000731052
0.00016472
0.000669091
0.000162021
0.000605843
0.00016183
0.000544378
0.000163154
0.000486412
0.00016398
0.000432034
0.000161874
0.000380845
0.000155915
0.000332451
0.000146056
0.000286554
0.00013259
0.000242923
0.000116294
0.000201438
9.81951e-05
0.000162343
7.92338e-05
0.000126057
6.01314e-05
9.27699e-05
4.13838e-05
6.25432e-05
2.34973e-05
3.55556e-05
7.8556e-06
1.2726e-05
8.87821e-08
1.97684e-07
0.000925795
0.000904276
0.000931597
0.000873687
0.000936792
0.00083265
0.000941864
0.000778584
0.000945829
0.000708251
0.000947064
0.000620584
0.000943348
0.000518045
0.000931926
0.000408363
0.000910569
0.000306893
0.000878106
0.000232048
0.000834731
0.000191356
0.000782181
0.000175859
0.000723376
0.000171456
0.000661776
0.000170489
0.000600613
0.000171381
0.000541942
0.000172803
0.000486224
0.000172509
0.000433307
0.000168757
0.000382913
0.000161213
0.000334786
0.000149927
0.000288716
0.000135419
0.000244581
0.000118551
0.000202636
0.000100233
0.000163362
8.12391e-05
0.000126984
6.20875e-05
9.35938e-05
4.31334e-05
6.32013e-05
2.47859e-05
3.59773e-05
8.4372e-06
1.28611e-05
1.00393e-07
2.00487e-07
0.000928911
0.000913974
0.000937642
0.00089003
0.000945582
0.000855735
0.00095315
0.000808598
0.000959635
0.000745401
0.000963712
0.00066457
0.000963578
0.000567352
0.000956751
0.000459223
0.000940924
0.000352672
0.000914544
0.000266074
0.000877188
0.00021249
0.000829916
0.000188806
0.000775125
0.000181429
0.000716067
0.000179543
0.00065603
0.000179771
0.000597349
0.000181223
0.000540859
0.000182104
0.000486677
0.000180367
0.00043467
0.000175076
0.000384646
0.000166077
0.000336426
0.000153647
0.000289905
0.000138413
0.00024534
0.000121191
0.000203264
0.000102769
0.000163986
8.37365e-05
0.00012762
6.44613e-05
9.41905e-05
4.51677e-05
6.37158e-05
2.62082e-05
3.63359e-05
9.04924e-06
1.2975e-05
1.1306e-07
2.02498e-07
0.000927389
0.000918819
0.000938846
0.000901516
0.000949408
0.000874134
0.000959419
0.000834259
0.000968409
0.000778711
0.000975333
0.000705505
0.000978764
0.00061491
0.000976491
0.000510532
0.000966194
0.000401942
0.000946025
0.000305847
0.00091504
0.000238872
0.000873653
0.000204583
0.00082368
0.000192288
0.000768031
0.00018899
0.000709956
0.000188491
0.000651999
0.000189554
0.000595352
0.000190965
0.000540412
0.000190851
0.000487215
0.00018766
0.000435666
0.000180941
0.000385629
0.00017076
0.000337011
0.000157484
0.000290085
0.000141758
0.00024542
0.000124334
0.00020341
0.00010585
0.00016423
8.67424e-05
0.000127946
6.72343e-05
9.45767e-05
4.743e-05
6.41063e-05
2.77193e-05
3.65987e-05
9.68065e-06
1.30487e-05
1.26527e-07
2.03613e-07
0.000921559
0.000918998
0.000935489
0.000908174
0.000948488
0.000887729
0.000960834
0.00085531
0.000972265
0.000807767
0.000981979
0.000742799
0.000988896
0.000659883
0.000991071
0.000561102
0.000986215
0.000453388
0.000972277
0.000350787
0.000947891
0.000271209
0.000912864
0.000224397
0.000868414
0.000204722
0.000817006
0.000198899
0.000761733
0.000197587
0.000705264
0.000198047
0.000649106
0.000199477
0.000593957
0.000200349
0.00054004
0.000199043
0.000487374
0.000194491
0.000435876
0.000186611
0.000385492
0.000175522
0.000336494
0.000161635
0.000289492
0.000145595
0.000244932
0.00012805
0.000203097
0.000109507
0.000164094
9.02449e-05
0.000127997
7.03224e-05
9.47863e-05
4.98472e-05
6.4317e-05
2.9287e-05
3.67171e-05
1.03192e-05
1.30722e-05
1.40598e-07
2.03661e-07
0.000911833
0.000914798
0.00092794
0.000910147
0.000943144
0.000896505
0.000957662
0.000871573
0.000971407
0.00083224
0.000983796
0.000775947
0.000994056
0.000701524
0.0010005
0.000609853
0.00100092
0.000505609
0.000993119
0.000399828
0.000975418
0.000309667
0.000947099
0.000249418
0.000908764
0.000219775
0.000862367
0.000209573
0.000810717
0.000207036
0.000756519
0.000206848
0.000701538
0.00020793
0.000646758
0.000209243
0.000592625
0.000209345
0.000539281
0.000206768
0.000486721
0.000201131
0.000434929
0.000192346
0.000384184
0.000180563
0.000335117
0.000166251
0.000288246
0.00015001
0.000243916
0.000132392
0.000202341
0.000113743
0.000163632
9.4146e-05
0.00012783
7.36291e-05
9.47403e-05
5.23676e-05
6.42779e-05
3.08852e-05
3.6675e-05
1.09496e-05
1.30416e-05
1.55091e-07
2.02403e-07
0.000898683
0.000906593
0.000916644
0.000907675
0.000933777
0.000900555
0.000950254
0.000882986
0.000966132
0.00085191
0.000981024
0.000804541
0.000994422
0.000739193
0.00100489
0.000655811
0.00101032
0.00055722
0.00100847
0.000451567
0.000997412
0.000353806
0.000975991
0.000280526
0.000944231
0.000238734
0.000903518
0.000221676
0.00085628
0.000216882
0.000805141
0.000215984
0.000752059
0.000216544
0.000698268
0.00021785
0.000644453
0.000218725
0.000590909
0.000217873
0.000537712
0.000214315
0.000484896
0.000207837
0.000432764
0.000198331
0.000381944
0.000186038
0.000333019
0.000171434
0.000286408
0.000155079
0.000242407
0.000137371
0.000201216
0.000118448
0.00016292
9.83266e-05
0.000127352
7.7087e-05
9.435e-05
5.49468e-05
6.39584e-05
3.24794e-05
3.64509e-05
1.15696e-05
1.29519e-05
1.70068e-07
2.00583e-07
0.000882616
0.000894825
0.000902095
0.000901092
0.000920858
0.000900073
0.000939037
0.000889587
0.000956815
0.000866638
0.000973984
0.000828273
0.000990258
0.000772374
0.00100444
0.000698131
0.00101455
0.000606941
0.00101835
0.000504402
0.00101376
0.000402552
0.000999285
0.000318054
0.000974408
0.000262911
0.000939936
0.000236286
0.00089783
0.000227409
0.000850528
0.000225414
0.000800074
0.000225432
0.000747935
0.000226431
0.000695008
0.000227621
0.000641765
0.000227937
0.000588387
0.000226234
0.000534974
0.000221953
0.000481832
0.000214786
0.000429611
0.000204726
0.000378924
0.000192057
0.000330276
0.000177279
0.000284037
0.000160826
0.000240501
0.000142881
0.000199817
0.000123493
0.000161861
0.000102708
0.000126454
8.0642e-05
9.35832e-05
5.75482e-05
6.3339e-05
3.40784e-05
3.60344e-05
1.21883e-05
1.2819e-05
1.88239e-07
1.97669e-07
0.000864143
0.000879981
0.000884816
0.00089081
0.000904897
0.000895354
0.0009245
0.000891528
0.000943908
0.000876424
0.000963081
0.00084696
0.000981912
0.000800668
0.000999438
0.000736137
0.00101382
0.000653655
0.00102288
0.00055672
0.00102448
0.00045438
0.00101683
0.000361627
0.00099899
0.000293327
0.000971174
0.000254783
0.000934832
0.000239298
0.000892098
0.000235178
0.000845014
0.000234593
0.000795204
0.000235167
0.000743772
0.000236304
0.000691363
0.000237214
0.000638291
0.000237001
0.000584724
0.000234719
0.000530994
0.000229839
0.000477747
0.000222134
0.000425634
0.00021164
0.000375223
0.000198729
0.000326974
0.000183821
0.000281255
0.000167146
0.000238311
0.000148782
0.000198057
0.000128789
0.000160338
0.000107234
0.000125116
8.42668e-05
9.2434e-05
6.02181e-05
6.24275e-05
3.58049e-05
3.54714e-05
1.29752e-05
1.2587e-05
2.06452e-07
2.00322e-07
0.000843746
0.00086256
0.000865322
0.00087729
0.000886423
0.000886771
0.00090716
0.00088906
0.000927908
0.00088136
0.000948773
0.000860523
0.000969804
0.000823797
0.000990252
0.000769291
0.00100845
0.000696428
0.0010223
0.000607063
0.00102967
0.00050752
0.0010286
0.000410146
0.00101778
0.000330397
0.000996887
0.000278589
0.000966818
0.000253686
0.000929322
0.000245571
0.000886326
0.000243973
0.000839534
0.000244131
0.000790228
0.000244998
0.000739218
0.000246098
0.000686961
0.000246767
0.000633708
0.000246223
0.000579837
0.00024347
0.000525974
0.000238135
0.000472803
0.000229983
0.000420946
0.000219187
0.000370942
0.000206099
0.000323251
0.000190966
0.000278195
0.000173903
0.000235759
0.000154988
0.00019582
0.000134285
0.000158343
0.000111899
0.000123362
8.80626e-05
9.0962e-05
6.32473e-05
6.13472e-05
3.80212e-05
3.47898e-05
1.37424e-05
1.26471e-05
2.22243e-07
2.04996e-07
0.000821841
0.000843041
0.000844088
0.000861016
0.000865943
0.000874764
0.000887541
0.000882523
0.000909335
0.000881659
0.000931564
0.00086901
0.000954409
0.000841618
0.000977324
0.000797199
0.00099882
0.000734517
0.00101694
0.000654163
0.00102957
0.000560176
0.0010347
0.000461969
0.00103071
0.000373751
0.00101684
0.000308804
0.000993404
0.000272051
0.00096172
0.00025733
0.000923484
0.000253619
0.000880401
0.000253285
0.000833863
0.000253837
0.000784844
0.000254838
0.000733939
0.000255929
0.0006815
0.000256601
0.000627944
0.000255729
0.000573906
0.000252668
0.000520078
0.000246927
0.000467128
0.000238441
0.00041567
0.000227423
0.000366245
0.000214089
0.000319262
0.000198585
0.000274793
0.000181013
0.000232747
0.000161453
0.000193119
0.000139998
0.00015595
0.000116857
0.000121328
9.24716e-05
8.93979e-05
6.70597e-05
6.03593e-05
4.01388e-05
3.4884e-05
1.4347e-05
1.28061e-05
2.36151e-07
2.08993e-07
0.000798745
0.000821849
0.000821514
0.000842464
0.000843918
0.000859803
0.000866136
0.000872331
0.000888701
0.000877624
0.000911965
0.000872584
0.000936233
0.000854111
0.000961146
0.000819626
0.0009854
0.000767374
0.00100719
0.000696989
0.00102451
0.000610703
0.00103533
0.000515162
0.00103785
0.000422215
0.00103091
0.000345875
0.00101432
0.000295905
0.000988885
0.00027169
0.000956016
0.00026388
0.000917301
0.000262568
0.000874182
0.000262841
0.000827762
0.000263619
0.000778768
0.000264776
0.000727659
0.000266054
0.000674905
0.000266724
0.000621154
0.000265737
0.000567097
0.000262375
0.000513443
0.000256319
0.000460865
0.000247574
0.000409991
0.000236277
0.000361309
0.000222577
0.000314979
0.000206599
0.000270975
0.000188444
0.000229321
0.000168222
0.000190083
0.000146138
0.000153382
0.000122667
0.000119351
9.78941e-05
8.82687e-05
7.06261e-05
6.06481e-05
4.18226e-05
3.52224e-05
1.48589e-05
1.29298e-05
2.48458e-07
2.12651e-07
0.000774663
0.000799319
0.0007979
0.000822067
0.00082073
0.000842361
0.000843383
0.000858939
0.000866482
0.000869647
0.000890481
0.000871512
0.000915795
0.000861392
0.000942239
0.000836482
0.000968699
0.000794639
0.000993552
0.00073476
0.00101493
0.000657701
0.00103083
0.000567753
0.00103939
0.00047399
0.00103912
0.000389352
0.0010294
0.000326392
0.00101052
0.000290233
0.000983512
0.000275593
0.000949774
0.000272058
0.000910708
0.000271938
0.000867498
0.000272519
0.000820991
0.000273538
0.000771751
0.000275024
0.000720308
0.000276611
0.00066732
0.000277417
0.000613491
0.000276288
0.000559553
0.000272685
0.00050623
0.000266363
0.000454225
0.000257317
0.000404113
0.000245646
0.000356137
0.000231497
0.000310354
0.00021499
0.000266827
0.000196265
0.000225664
0.000175544
0.000187027
0.00015333
0.000151083
0.000129652
0.000118214
0.000102896
8.8865e-05
7.34992e-05
6.12659e-05
4.32699e-05
3.54727e-05
1.5304e-05
1.30432e-05
2.59344e-07
2.16125e-07
0.000749659
0.000775673
0.000773425
0.000800171
0.000796649
0.000822875
0.000819641
0.000842821
0.0008431
0.000858169
0.000867579
0.00086616
0.000893598
0.000863686
0.00092113
0.000847818
0.000949257
0.000816117
0.000976551
0.000766936
0.00100131
0.000700077
0.00102164
0.00061796
0.00103564
0.000526999
0.00104165
0.000437925
0.00103863
0.00036389
0.00102643
0.000314543
0.00100565
0.00029012
0.00097741
0.000282195
0.000942996
0.000281063
0.000903602
0.000281504
0.000860162
0.000282353
0.000813343
0.000283772
0.000763733
0.000285776
0.000712009
0.00028784
0.000658886
0.0002887
0.00060511
0.000287468
0.000551451
0.000283642
0.00049867
0.000277007
0.000447429
0.000267573
0.000398068
0.000255469
0.000350716
0.000240838
0.000305506
0.000223847
0.000262588
0.000204755
0.000222177
0.000184073
0.000184498
0.000161777
0.000150036
0.000136034
0.000119182
0.000106981
8.98393e-05
7.59706e-05
6.17174e-05
4.45344e-05
3.57151e-05
1.56915e-05
1.31543e-05
2.68916e-07
2.19452e-07
0.000723657
0.000751
0.000748126
0.000777024
0.000771827
0.000801712
0.000795149
0.000824425
0.000818879
0.000843666
0.000843657
0.000856959
0.000870099
0.00086133
0.000898328
0.000853819
0.000927619
0.000831786
0.000956754
0.000793178
0.000984215
0.000737021
0.00100826
0.000664301
0.00102703
0.000579127
0.00103876
0.000489638
0.00104213
0.000407797
0.00103655
0.000345723
0.00102221
0.000309158
0.000999881
0.000293963
0.000970646
0.000290359
0.000935645
0.000290466
0.00089585
0.000291241
0.000852007
0.000292488
0.000804764
0.000294532
0.000754821
0.000297237
0.000702896
0.000299707
0.000649754
0.000300655
0.000596194
0.000299305
0.000543032
0.000295185
0.000491003
0.00028816
0.000440547
0.000278296
0.000391881
0.000265749
0.000345206
0.000250709
0.00030073
0.000233478
0.000258725
0.000214556
0.000219492
0.000193861
0.000183605
0.00016948
0.000151399
0.000141325
0.000120554
0.000110498
9.05583e-05
7.8126e-05
6.21501e-05
4.56401e-05
3.5969e-05
1.60284e-05
1.3265e-05
2.77359e-07
2.22643e-07
0.000696462
0.000725244
0.000721905
0.000752734
0.000746274
0.000779143
0.000770026
0.00080414
0.000794035
0.000826601
0.000819023
0.000844383
0.000845689
0.000854742
0.000874296
0.000854786
0.000904309
0.000841771
0.00093472
0.000813362
0.000964227
0.000768017
0.000991266
0.000705639
0.00101408
0.000628495
0.00103089
0.000542221
0.00104016
0.000456594
0.00104097
0.000384007
0.00103311
0.000334309
0.00101695
0.000308883
0.000993325
0.000300406
0.00096324
0.000299364
0.000927645
0.00030011
0.000887329
0.00030125
0.000842991
0.000303126
0.000795348
0.000306023
0.000745132
0.000309469
0.000693115
0.000312302
0.000640115
0.000313303
0.000586995
0.000311728
0.000534558
0.000307231
0.000483332
0.00029978
0.000433642
0.000289498
0.000385751
0.000276603
0.000339942
0.00026142
0.000296548
0.000244459
0.000255948
0.000225553
0.000218791
0.000202807
0.000185358
0.000175946
0.000153182
0.000145888
0.000121586
0.000113564
9.12322e-05
8.00081e-05
6.25995e-05
4.66043e-05
3.62366e-05
1.63195e-05
1.33756e-05
2.84713e-07
2.25813e-07
0.000667801
0.000698235
0.000694543
0.000727275
0.000719862
0.000755306
0.000744254
0.000782269
0.000768661
0.000807394
0.000793873
0.000828915
0.000820669
0.000844396
0.000849429
0.000851116
0.000879802
0.000846332
0.000910995
0.000827539
0.000941931
0.000792786
0.000971257
0.000741181
0.000997367
0.000673585
0.00101852
0.000593484
0.0010331
0.000508128
0.0010399
0.00042856
0.00103836
0.000366572
0.00102849
0.000328747
0.00101079
0.000312373
0.000986059
0.000308444
0.000955173
0.000308833
0.000918917
0.000310012
0.000878014
0.00031171
0.000833198
0.000314484
0.000785205
0.000318375
0.000734814
0.000322534
0.000682857
0.000325651
0.000630231
0.000326554
0.000577793
0.000324646
0.000526164
0.000319735
0.000475762
0.00031188
0.000426941
0.0003013
0.000380048
0.000288326
0.000335487
0.000273482
0.000293715
0.000256539
0.000255444
0.000235647
0.000220902
0.000210401
0.000187541
0.000181542
0.000154551
0.000149868
0.000122538
0.00011624
9.19203e-05
8.16476e-05
6.30735e-05
4.74398e-05
3.65181e-05
1.65698e-05
1.34863e-05
2.9096e-07
2.28802e-07
0.000637398
0.00066972
0.000665753
0.000700501
0.000692355
0.000730206
0.000717677
0.000758986
0.000742709
0.000786381
0.000768279
0.000811004
0.000795223
0.000830789
0.000824025
0.00084328
0.0008545
0.000845847
0.000886071
0.000835916
0.000917895
0.000811275
0.000948843
0.000770455
0.000977505
0.000713271
0.00100225
0.000641494
0.00102143
0.000560008
0.00103369
0.000477597
0.00103816
0.000405929
0.0010345
0.000355125
0.00102288
0.000327958
0.00100385
0.000318475
0.000978109
0.000317428
0.000946408
0.000318628
0.000909454
0.000320296
0.000867981
0.000322832
0.000822727
0.000326737
0.00077447
0.000331659
0.000724053
0.000336434
0.00067239
0.000339644
0.000620386
0.000340304
0.000568747
0.000338011
0.000517985
0.000332707
0.000468541
0.000324583
0.00042084
0.000313957
0.000375354
0.000301365
0.000332618
0.000286529
0.000293394
0.00026768
0.000257863
0.000244312
0.000223453
0.000217006
0.000189252
0.000186436
0.000155801
0.000153348
0.000123491
0.000118572
9.26344e-05
8.3068e-05
6.35707e-05
4.8159e-05
3.68118e-05
1.67841e-05
1.35982e-05
2.96373e-07
2.31801e-07
0.000605045
0.000639428
0.000635246
0.000672172
0.000663449
0.000703725
0.000690041
0.000734335
0.000716004
0.000763784
0.000742174
0.000791031
0.000769411
0.000814401
0.000798271
0.000831787
0.000828714
0.000840775
0.000860369
0.000838837
0.00089263
0.000823617
0.000924612
0.000793255
0.000955122
0.000746812
0.000982689
0.00068476
0.00100573
0.000609973
0.0010228
0.000528777
0.00103281
0.000451232
0.00103513
0.000388802
0.00102959
0.000349014
0.00101644
0.000330853
0.0009962
0.000326297
0.000969485
0.000326984
0.000936958
0.000328771
0.000899325
0.000331155
0.000857318
0.000334825
0.000811704
0.000339994
0.000763328
0.000345866
0.000713113
0.000351043
0.000662002
0.000354148
0.00061077
0.000354488
0.000560025
0.000351817
0.000510294
0.000346253
0.000462082
0.000338097
0.00041593
0.000327868
0.000372451
0.000315264
0.000332444
0.000298615
0.000296053
0.000277347
0.00026073
0.000251887
0.00022549
0.000222797
0.000190803
0.000190721
0.000157033
0.000156384
0.000124467
0.000120593
9.33783e-05
8.42904e-05
6.40913e-05
4.87724e-05
3.71176e-05
1.69637e-05
1.37099e-05
3.00903e-07
2.34748e-07
0.000570695
0.000607157
0.000602813
0.000642032
0.000632845
0.000675644
0.000661029
0.000708231
0.000688274
0.000739699
0.000715369
0.000769272
0.000743157
0.000795659
0.000772226
0.000817148
0.000802641
0.000831633
0.000834215
0.000836748
0.000866579
0.00083011
0.0008991
0.00080962
0.000930825
0.000773811
0.000960486
0.000722215
0.000986614
0.000656121
0.00100777
0.0005796
0.00102274
0.000500418
0.00103064
0.000429409
0.00103101
0.000376978
0.0010238
0.000347438
0.00100927
0.000336455
0.000987891
0.000335208
0.000960214
0.000336966
0.000926888
0.000339398
0.000888614
0.000342806
0.000846144
0.000347841
0.000800308
0.000354257
0.000752033
0.000360873
0.000702284
0.000366192
0.000651899
0.00036909
0.000601569
0.000369082
0.00055191
0.000366147
0.000503505
0.000360552
0.000456965
0.000352777
0.000412977
0.000342509
0.000372371
0.000328191
0.000335262
0.000309209
0.000299169
0.00028585
0.000263061
0.000258559
0.000227331
0.000227886
0.000192313
0.000194469
0.00015828
0.000159021
0.000125473
0.000122334
9.41509e-05
8.53314e-05
6.46342e-05
4.92871e-05
3.74344e-05
1.71132e-05
1.38228e-05
3.0465e-07
2.37552e-07
0.000534539
0.000572861
0.000568409
0.000609884
0.000600334
0.000645719
0.000630334
0.000680484
0.000659188
0.00071408
0.000687579
0.000745874
0.000716266
0.000774891
0.000745817
0.000799827
0.000776351
0.000818953
0.000807824
0.000830168
0.000840092
0.000831178
0.000872772
0.000819783
0.000905173
0.000794173
0.000936261
0.000753216
0.000964734
0.000697027
0.00098922
0.000627816
0.00100846
0.000550952
0.00102142
0.000475431
0.00102738
0.00041231
0.00102599
0.000370077
0.00101726
0.000349546
0.00100145
0.000343934
0.000978965
0.000344827
0.000950361
0.000347392
0.000916276
0.0003507
0.000877428
0.000355433
0.000834626
0.000361917
0.000788782
0.000369418
0.000740873
0.000376511
0.000691786
0.000381793
0.000642289
0.000384407
0.000593081
0.000384127
0.000544818
0.000381155
0.000498185
0.000375902
0.000453933
0.000368054
0.000412923
0.00035618
0.000375256
0.000339637
0.000338548
0.00031859
0.000301746
0.000293372
0.000265164
0.000264441
0.000229107
0.000232352
0.000193827
0.000197736
0.000159552
0.000161298
0.00012651
0.000123821
9.49515e-05
8.62063e-05
6.51967e-05
4.9713e-05
3.77626e-05
1.72353e-05
1.39366e-05
3.07656e-07
2.40367e-07
0.000497039
0.00053673
0.000532233
0.000575678
0.000565878
0.000613752
0.000597745
0.00065086
0.000628435
0.00068677
0.000658459
0.000720843
0.000688437
0.000752304
0.000718844
0.00078021
0.000749773
0.000803241
0.000781278
0.000819644
0.000813398
0.000827331
0.000845998
0.000824124
0.000878655
0.000808029
0.000910591
0.000777475
0.000940715
0.000731731
0.000967785
0.000671586
0.000990575
0.000600301
0.00100796
0.00052453
0.00101902
0.000454225
0.00102319
0.000399959
0.0010202
0.000367554
0.00101007
0.000354466
0.000993027
0.000352669
0.000969488
0.000354987
0.00094
0.000358386
0.000905223
0.000362874
0.000865925
0.000369118
0.000822994
0.00037697
0.000777403
0.00038531
0.000730074
0.00039264
0.00068184
0.000397747
0.000633472
0.000400094
0.000585706
0.000399767
0.000539286
0.000397081
0.000495034
0.000391721
0.000453832
0.000382379