/*--------------------------------*- C++ -*----------------------------------*\
  =========                 |
  \\      /  F ield         | OpenFOAM: The Open Source CFD Toolbox
   \\    /   O peration     | Website:  https://openfoam.org
    \\  /    A nd           | Version:  7
     \\/     M anipulation  |
\*---------------------------------------------------------------------------*/
FoamFile
{
    version     2.0;
    format      ascii;
    class       volScalarField;
    location    "20000";
    object      p;
}
// * * * * * * * * * * * * * * * * * * * * * * * * * * * * * * * * * * * * * //

dimensions      [0 2 -2 0 0 0 0];

internalField   nonuniform List<scalar> 
10981
(
-0.00014775
-0.00014775
-0.000144622
-0.000155486
-0.000147631
-0.000144623
-0.000155294
-0.00015735
-0.000183968
-0.00014726
-0.000144467
-0.000154886
-0.00015689
-0.00018325
-0.000158535
-0.000203704
-0.000146631
-0.00014404
-0.000154234
-0.000155934
-0.000181835
-0.000157835
-0.000202387
-0.000146976
-0.000219407
-0.000145746
-0.000143329
-0.000153338
-0.000154554
-0.000179901
-0.000156395
-0.000199866
-0.000146468
-0.000217465
-0.000121905
-0.000211925
-0.000144595
-0.000142344
-0.000152176
-0.000152802
-0.000177486
-0.000154458
-0.000196545
-0.000145124
-0.000213617
-0.000122095
-0.000210198
-8.70828e-05
-0.000162042
-0.000143166
-0.00014108
-0.000150728
-0.000150682
-0.00017462
-0.000152148
-0.000192603
-0.000143208
-0.00020873
-0.000121576
-0.000206068
-8.78399e-05
-0.000162203
-5.94487e-05
-9.43253e-05
-0.000141448
-0.000139534
-0.000148982
-0.000148213
-0.000171343
-0.000149473
-0.000188122
-0.000140931
-0.000203166
-0.000120477
-0.000200742
-8.81632e-05
-0.000160359
-6.02134e-05
-9.62007e-05
-4.10533e-05
-3.03339e-05
-0.000139431
-0.000137703
-0.000146934
-0.000145422
-0.000167713
-0.000146457
-0.000183217
-0.000138325
-0.000197086
-0.000119077
-0.000194818
-8.80434e-05
-0.000157456
-6.07195e-05
-9.69e-05
-4.16744e-05
-3.292e-05
-2.81875e-05
2.30433e-05
-0.000137105
-0.000135585
-0.000144579
-0.000142337
-0.000163757
-0.000143134
-0.00017798
-0.000135419
-0.000190628
-0.000117415
-0.000188475
-8.77668e-05
-0.00015411
-6.09092e-05
-9.68587e-05
-4.21386e-05
-3.50021e-05
-2.86832e-05
2.04164e-05
-1.88354e-05
6.52415e-05
-0.00013446
-0.000133178
-0.000141909
-0.000138989
-0.000159513
-0.000139537
-0.00017247
-0.000132242
-0.00018389
-0.000115479
-0.000181822
-8.73686e-05
-0.000150468
-6.1005e-05
-9.66133e-05
-4.23741e-05
-3.67053e-05
-2.90892e-05
1.78815e-05
-1.92317e-05
6.28684e-05
-1.16337e-05
9.84548e-05
-0.000131488
-0.000130479
-0.000138915
-0.000135402
-0.00015499
-0.000135703
-0.000166721
-0.00012884
-0.000176944
-0.00011331
-0.000174916
-8.68155e-05
-0.00014651
-6.10594e-05
-9.62293e-05
-4.25175e-05
-3.84055e-05
-2.93388e-05
1.54578e-05
-1.95778e-05
6.03517e-05
-1.19583e-05
9.64057e-05
-5.85035e-06
0.000123846
-0.000128185
-0.000127488
-0.000135589
-0.0001316
-0.000150201
-0.000131669
-0.00016076
-0.000125239
-0.000169827
-0.000110925
-0.000167822
-8.60971e-05
-0.000142266
-6.1054e-05
-9.56499e-05
-4.26172e-05
-4.01775e-05
-2.95137e-05
1.28759e-05
-1.98204e-05
5.77869e-05
-1.22545e-05
9.40917e-05
-6.11987e-06
0.000122171
-1.04573e-06
0.000142349
-0.000124552
-0.000124203
-0.000131926
-0.000127607
-0.00014516
-0.000127466
-0.000154617
-0.000121471
-0.000162575
-0.000108368
-0.00016058
-8.52314e-05
-0.000137722
-6.09844e-05
-9.47974e-05
-4.26656e-05
-4.19257e-05
-2.96432e-05
1.00868e-05
-2.00124e-05
5.49847e-05
-1.24813e-05
9.16404e-05
-6.37447e-06
0.000120168
-1.2715e-06
0.000141048
3.0714e-06
0.00015535
-0.000120591
-0.000120628
-0.000127927
-0.000123438
-0.000139876
-0.000123127
-0.000148308
-0.000117564
-0.000155228
-0.000105645
-0.000153218
-8.42192e-05
-0.0001329
-6.0855e-05
-9.36566e-05
-4.26624e-05
-4.35714e-05
-2.97166e-05
7.15177e-06
-2.01715e-05
5.1891e-05
-1.26766e-05
8.8904e-05
-6.58129e-06
0.000117964
-1.48827e-06
0.00013942
2.87697e-06
0.000154343
6.74356e-06
0.000165786
-0.000116315
-0.000116768
-0.000123593
-0.000119107
-0.000134364
-0.000118674
-0.00014186
-0.000113542
-0.000147808
-0.000102778
-0.000145785
-8.30784e-05
-0.000127814
-6.06737e-05
-9.21698e-05
-4.26212e-05
-4.50524e-05
-2.97251e-05
4.15613e-06
-2.0286e-05
4.85654e-05
-1.28524e-05
8.58626e-05
-6.76864e-06
0.000115482
-1.66971e-06
0.00013757
2.68881e-06
0.000153049
6.57277e-06
0.000164954
1.00133e-05
0.00017435
-0.000111738
-0.000112633
-0.000118939
-0.000114628
-0.000128636
-0.000114131
-0.000135287
-0.000109432
-0.00014035
-9.97729e-05
-0.000138305
-8.18116e-05
-0.000122484
-6.04464e-05
-9.03257e-05
-4.25602e-05
-4.62928e-05
-2.96706e-05
1.15991e-06
-2.0341e-05
4.50535e-05
-1.29987e-05
8.2537e-05
-6.94652e-06
0.000112685
-1.83905e-06
0.000135447
2.52806e-06
0.000151543
6.40559e-06
0.000163876
9.86218e-06
0.000173638
1.29833e-05
0.000181732
-0.000106882
-0.000108235
-0.000113981
-0.000110012
-0.000122716
-0.00010951
-0.000128601
-0.000105251
-0.000132866
-9.66416e-05
-0.000130816
-8.04129e-05
-0.000116925
-6.01759e-05
-8.81036e-05
-4.24991e-05
-4.72531e-05
-2.95648e-05
-1.76818e-06
-2.0326e-05
4.14162e-05
-1.31019e-05
7.89667e-05
-7.10725e-06
0.000109597
-2.00478e-06
0.000133029
2.37533e-06
0.000149791
6.26121e-06
0.000162605
9.7145e-06
0.000172705
1.28489e-05
0.000181102
1.56859e-05
0.000188222
-0.000101772
-0.000103593
-0.000108742
-0.000105272
-0.000116624
-0.000104827
-0.000121832
-0.000101016
-0.000125391
-9.33943e-05
-0.000123341
-7.88713e-05
-0.000111174
-5.98629e-05
-8.55047e-05
-4.24557e-05
-4.78767e-05
-2.94297e-05
-4.56364e-06
-2.02364e-05
3.77031e-05
-1.31478e-05
7.51898e-05
-7.23916e-06
0.000106235
-2.16185e-06
0.000130324
2.22275e-06
0.000147774
6.12285e-06
0.000161117
9.58523e-06
0.000171597
1.27176e-05
0.00018027
1.55659e-05
0.00018765
1.8195e-05
0.000194023
-9.64395e-05
-9.87301e-05
-0.000103251
-0.000100416
-0.00011038
-0.000100092
-0.000115002
-9.67406e-05
-0.000117941
-9.0044e-05
-0.000115907
-7.71722e-05
-0.000105267
-5.94971e-05
-8.2536e-05
-4.2445e-05
-4.81157e-05
-2.92947e-05
-7.161e-06
-2.00758e-05
3.39768e-05
-1.31227e-05
7.12465e-05
-7.33008e-06
0.000102627
-2.30184e-06
0.000127346
2.07372e-06
0.000145495
5.98275e-06
0.000159395
9.46047e-06
0.000170296
1.26041e-05
0.000179274
1.54503e-05
0.00018689
1.8085e-05
0.000193487
2.05594e-05
0.000199408
-9.09169e-05
-9.36718e-05
-9.75443e-05
-9.54575e-05
-0.000104017
-9.53151e-05
-0.000108124
-9.24323e-05
-0.000110533
-8.65991e-05
-0.000108534
-7.53031e-05
-9.92314e-05
-5.90562e-05
-7.92018e-05
-4.24753e-05
-4.79521e-05
-2.91934e-05
-9.49505e-06
-1.98605e-05
3.02946e-05
-1.30161e-05
6.71823e-05
-7.36581e-06
9.87974e-05
-2.41462e-06
0.000124104
1.93381e-06
0.000142958
5.84402e-06
0.000157442
9.33398e-06
0.00016879
1.24933e-05
0.000178103
1.53509e-05
0.000185974
1.79804e-05
0.000192772
2.04573e-05
0.000198897
2.278e-05
0.000204289
-8.52426e-05
-8.8445e-05
-9.16569e-05
-9.04078e-05
-9.75618e-05
-9.04986e-05
-0.000101225
-8.80984e-05
-0.000103187
-8.30775e-05
-0.000101241
-7.32526e-05
-9.31032e-05
-5.85071e-05
-7.5531e-05
-4.25433e-05
-4.7354e-05
-2.91568e-05
-1.15159e-05
-1.96202e-05
2.67258e-05
-1.28243e-05
6.30468e-05
-7.33064e-06
9.47796e-05
-2.48792e-06
0.000120617
1.81034e-06
0.000140169
5.71056e-06
0.000155258
9.20674e-06
0.00016708
1.23802e-05
0.000176751
1.52551e-05
0.000184895
1.78925e-05
0.000191906
2.03603e-05
0.000198197
2.26853e-05
0.00020381
2.48929e-05
0.000208209
-7.94547e-05
-8.30824e-05
-8.56323e-05
-8.52803e-05
-9.10417e-05
-8.56513e-05
-9.43266e-05
-8.37433e-05
-9.59217e-05
-7.94859e-05
-9.40485e-05
-7.10226e-05
-8.69124e-05
-5.78099e-05
-7.156e-05
-4.26314e-05
-4.63242e-05
-2.92091e-05
-1.31691e-05
-1.93954e-05
2.33273e-05
-1.25547e-05
5.88952e-05
-7.2106e-06
9.06118e-05
-2.50718e-06
0.000116904
1.71297e-06
0.000137135
5.58701e-06
0.000152845
9.08224e-06
0.000165168
1.22655e-05
0.000175216
1.51558e-05
0.000183654
1.78069e-05
0.000190891
2.02781e-05
0.00019735
2.25944e-05
0.000203131
2.48034e-05
0.000207783
2.69405e-05
0.000211175
-7.35934e-05
-7.76153e-05
-7.95135e-05
-8.00907e-05
-8.44901e-05
-8.07779e-05
-8.74525e-05
-7.93675e-05
-8.87519e-05
-7.58352e-05
-8.69677e-05
-6.86189e-05
-8.07002e-05
-5.69292e-05
-6.73146e-05
-4.27037e-05
-4.48548e-05
-2.93621e-05
-1.44122e-05
-1.92308e-05
2.01658e-05
-1.22311e-05
5.47841e-05
-6.99637e-06
8.63363e-05
-2.4563e-06
0.000112991
1.65369e-06
0.000133866
5.4805e-06
0.000150207
8.96427e-06
0.000163052
1.21514e-05
0.000173503
1.50543e-05
0.00018225
1.77184e-05
0.000189726
2.01989e-05
0.000196363
2.25177e-05
0.000202297
2.47166e-05
0.000207149
2.68548e-05
0.000210809
2.89482e-05
0.000213195
-6.7696e-05
-7.20776e-05
-7.33421e-05
-7.48542e-05
-7.79405e-05
-7.58859e-05
-8.0627e-05
-7.4973e-05
-8.16922e-05
-7.21324e-05
-8.00155e-05
-6.6053e-05
-7.44939e-05
-5.58354e-05
-6.28482e-05
-4.27112e-05
-4.29657e-05
-2.9613e-05
-1.52204e-05
-1.91687e-05
1.73056e-05
-1.1893e-05
5.07743e-05
-6.68832e-06
8.19974e-05
-2.31959e-06
0.000108908
1.64689e-06
0.000130376
5.40075e-06
0.000147346
8.85789e-06
0.000160734
1.2041e-05
0.000171613
1.49522e-05
0.000180686
1.76266e-05
0.000188415
2.01161e-05
0.000195239
2.24427e-05
0.000201332
2.46424e-05
0.000206357
2.67689e-05
0.000210235
2.88644e-05
0.00021289
3.09313e-05
0.000214345
-6.17995e-05
-6.65022e-05
-6.71594e-05
-6.95878e-05
-7.14201e-05
-7.09801e-05
-7.3871e-05
-7.05622e-05
-7.47577e-05
-6.83802e-05
-7.31936e-05
-6.33371e-05
-6.83211e-05
-5.45142e-05
-5.81962e-05
-4.25957e-05
-4.06794e-05
-2.99311e-05
-1.55738e-05
-1.92387e-05
1.47824e-05
-1.15923e-05
4.69274e-05
-6.30218e-06
7.76466e-05
-2.0846e-06
0.000104688
1.70802e-06
0.000126686
5.35887e-06
0.000144271
8.76966e-06
0.000158216
1.19378e-05
0.000169542
1.48512e-05
0.000178963
1.75331e-05
0.000186963
2.00293e-05
0.000193985
2.23636e-05
0.000200241
2.45683e-05
0.000205439
2.66923e-05
0.0002095
2.87766e-05
0.00021238
3.08503e-05
0.0002141
3.28709e-05
0.000214681
-5.59428e-05
-6.09199e-05
-6.10041e-05
-6.43114e-05
-6.49604e-05
-6.60684e-05
-6.72093e-05
-6.61371e-05
-6.79593e-05
-6.45828e-05
-6.65191e-05
-6.0486e-05
-6.22087e-05
-5.29646e-05
-5.33982e-05
-4.23057e-05
-3.80309e-05
-3.02721e-05
-1.54543e-05
-1.94532e-05
1.26589e-05
-1.13847e-05
4.33057e-05
-5.87264e-06
7.33425e-05
-1.74676e-06
0.000100371
1.85294e-06
0.000122816
5.36893e-06
0.000140989
8.70979e-06
0.0001555
1.18479e-05
0.000167292
1.47549e-05
0.000177082
1.74392e-05
0.000185369
1.99393e-05
0.000192603
2.228e-05
0.000199028
2.44892e-05
0.000204403
2.66151e-05
0.000208648
2.86947e-05
0.000211714
3.07602e-05
0.000213656
3.27942e-05
0.000214492
3.48019e-05
0.000214216
-5.01577e-05
-5.53633e-05
-5.4916e-05
-5.90459e-05
-5.85928e-05
-6.1161e-05
-6.06603e-05
-6.17012e-05
-6.13136e-05
-6.07443e-05
-5.99954e-05
-5.75109e-05
-5.61731e-05
-5.11899e-05
-4.85054e-05
-4.17974e-05
-3.50583e-05
-3.05701e-05
-1.48863e-05
-1.97987e-05
1.09615e-05
-1.13174e-05
3.99615e-05
-5.45328e-06
6.91379e-05
-1.3151e-06
9.60033e-05
2.09529e-06
0.000118796
5.44658e-06
0.000137517
8.68914e-06
0.00015259
1.1778e-05
0.000164864
1.46674e-05
0.000175042
1.73475e-05
0.000183634
1.9848e-05
0.000191095
2.21921e-05
0.000197699
2.44046e-05
0.000203254
2.65318e-05
0.000207687
2.86099e-05
0.000210938
3.06715e-05
0.000213061
3.2704e-05
0.000214118
3.47292e-05
0.00021408
3.67655e-05
0.000213192
-4.44736e-05
-4.9862e-05
-4.89263e-05
-5.38098e-05
-5.23424e-05
-5.627e-05
-5.4251e-05
-5.72601e-05
-5.4827e-05
-5.68668e-05
-5.36355e-05
-5.44245e-05
-5.02401e-05
-4.9204e-05
-4.35508e-05
-4.10471e-05
-3.18062e-05
-3.0759e-05
-1.38734e-05
-2.02368e-05
9.72208e-06
-1.14201e-05
3.69509e-05
-5.10829e-06
6.50963e-05
-8.182e-07
9.16324e-05
2.44247e-06
0.000114655
5.60705e-06
0.000133868
8.72163e-06
0.000149492
1.17382e-05
0.000162259
1.45948e-05
0.000172843
1.72616e-05
0.000181758
1.97568e-05
0.000189463
2.21011e-05
0.000196257
2.43149e-05
0.000201997
2.6442e-05
0.000206622
2.8518e-05
0.000210064
3.05772e-05
0.000212368
3.26112e-05
0.000213603
3.46391e-05
0.000213777
3.66959e-05
0.000213094
3.87696e-05
0.00021177
-3.89184e-05
-4.44423e-05
-4.30648e-05
-4.86238e-05
-4.62335e-05
-5.1407e-05
-4.79972e-05
-5.28211e-05
-4.85173e-05
-5.29568e-05
-4.74421e-05
-5.12395e-05
-4.44223e-05
-4.70205e-05
-3.85754e-05
-4.00429e-05
-2.83259e-05
-3.07753e-05
-1.24503e-05
-2.07053e-05
8.94071e-06
-1.16943e-05
3.43221e-05
-4.89935e-06
6.12676e-05
-3.06808e-07
8.73131e-05
2.88992e-06
0.000110433
5.86287e-06
0.000130066
8.82188e-06
0.000146217
1.17396e-05
0.000159481
1.45445e-05
0.000170485
1.71869e-05
0.00017974
1.96692e-05
0.000187707
2.20089e-05
0.000194703
2.42206e-05
0.000200635
2.6346e-05
0.000205455
2.84183e-05
0.000209095
3.04741e-05
0.000211588
3.25101e-05
0.000212999
3.45423e-05
0.000213345
3.66046e-05
0.00021285
3.87035e-05
0.000211698
4.0819e-05
0.000210015
-3.35158e-05
-3.91302e-05
-3.73587e-05
-4.3509e-05
-4.02888e-05
-4.65851e-05
-4.19162e-05
-4.83918e-05
-4.23908e-05
-4.90196e-05
-4.14286e-05
-4.79651e-05
-3.8736e-05
-4.4657e-05
-3.36101e-05
-3.87865e-05
-2.46617e-05
-3.05743e-05
-1.06549e-05
-2.11323e-05
8.62279e-06
-1.21091e-05
3.2105e-05
-4.87142e-06
5.7715e-05
1.51075e-07
8.30957e-05
3.4145e-06
0.000106172
6.22254e-06
0.000126135
9.00534e-06
0.000142774
1.17957e-05
0.000156533
1.45265e-05
0.000167968
1.71295e-05
0.000177581
1.95895e-05
0.000185826
2.19182e-05
0.000193037
2.41234e-05
0.000199169
2.62443e-05
0.000204189
2.83115e-05
0.000208032
3.03621e-05
0.000210721
3.23982e-05
0.000212318
3.44351e-05
0.000212835
3.65025e-05
0.000212492
3.86112e-05
0.000211499
4.07575e-05
0.000209962
4.29117e-05
0.000207969
-2.82869e-05
-3.39479e-05
-3.1829e-05
-3.84846e-05
-3.45293e-05
-4.18193e-05
-3.60239e-05
-4.39842e-05
-3.64613e-05
-4.50636e-05
-3.55968e-05
-4.46127e-05
-3.31914e-05
-4.21311e-05
-2.86844e-05
-3.72862e-05
-2.08604e-05
-3.01274e-05
-8.52972e-06
-2.14436e-05
8.75504e-06
-1.26092e-05
3.03256e-05
-5.04111e-06
5.44831e-05
4.82674e-07
7.90416e-05
3.97264e-06
0.000101918
6.68402e-06
0.000122106
9.28405e-06
0.000139182
1.19202e-05
0.000153421
1.45519e-05
0.000165295
1.70973e-05
0.000175279
1.95234e-05
0.000183819
2.18329e-05
0.00019126
2.40258e-05
0.0001976
2.61383e-05
0.000202826
2.81982e-05
0.000206878
3.02416e-05
0.000209769
3.22758e-05
0.00021156
3.4315e-05
0.000212258
3.63876e-05
0.000212068
3.85036e-05
0.000211203
4.06649e-05
0.0002098
4.28568e-05
0.00020793
4.50336e-05
0.000205659
-2.32493e-05
-2.89152e-05
-2.64953e-05
-3.35704e-05
-2.89708e-05
-3.71251e-05
-3.03377e-05
-3.96086e-05
-3.0733e-05
-4.10978e-05
-2.9959e-05
-4.11952e-05
-2.78035e-05
-3.94592e-05
-2.38234e-05
-3.55573e-05
-1.69704e-05
-2.94219e-05
-6.1226e-06
-2.15778e-05
9.30589e-06
-1.31205e-05
2.89968e-05
-5.38821e-06
5.16133e-05
6.29759e-07
7.51988e-05
4.49881e-06
9.77216e-05
7.22719e-06
0.000118013
9.66427e-06
0.000135459
1.21284e-05
0.000150153
1.46343e-05
0.000162466
1.71002e-05
0.000172833
1.94778e-05
0.000181684
2.17585e-05
0.000189371
2.39315e-05
0.000195927
2.60302e-05
0.000201367
2.80791e-05
0.000205633
3.01132e-05
0.000208734
3.21435e-05
0.000210725
3.41831e-05
0.000211614
3.62589e-05
0.000211587
3.83815e-05
0.000210851
4.05535e-05
0.000209556
4.27671e-05
0.000207799
4.49879e-05
0.00020563
4.72291e-05
0.000203048
-1.84162e-05
-2.40503e-05
-2.13732e-05
-2.87834e-05
-2.36262e-05
-3.25184e-05
-2.48664e-05
-3.52795e-05
-2.5221e-05
-3.7134e-05
-2.4517e-05
-3.77254e-05
-2.25786e-05
-3.66599e-05
-1.90492e-05
-3.36177e-05
-1.3027e-05
-2.84557e-05
-3.48862e-06
-2.14921e-05
1.02478e-05
-1.35686e-05
2.81152e-05
-5.8602e-06
4.91413e-05
5.63884e-07
7.16223e-05
4.91771e-06
9.3632e-05
7.80914e-06
0.000113898
1.01444e-05
0.000131631
1.24324e-05
0.000146741
1.47869e-05
0.000159485
1.71494e-05
0.000170244
1.94617e-05
0.000179421
2.17012e-05
0.000187368
2.38455e-05
0.000194152
2.59235e-05
0.00019981
2.79569e-05
0.000204297
2.99782e-05
0.000207614
3.20019e-05
0.000209814
3.40397e-05
0.0002109
3.61167e-05
0.000211046
3.82448e-05
0.000210451
4.04263e-05
0.000209266
4.26553e-05
0.000207602
4.49053e-05
0.00020553
4.71993e-05
0.000203027
4.91999e-05
0.000200311
-1.3799e-05
-1.9368e-05
-1.64739e-05
-2.41396e-05
-1.85099e-05
-2.80152e-05
-1.96197e-05
-3.10104e-05
-1.99272e-05
-3.31847e-05
-1.92814e-05
-3.42156e-05
-1.7527e-05
-3.37509e-05
-1.43836e-05
-3.14868e-05
-9.06913e-06
-2.72364e-05
-6.67215e-07
-2.11623e-05
1.15304e-05
-1.38833e-05
2.76714e-05
-6.38342e-06
4.70832e-05
2.97647e-07
6.83575e-05
5.16079e-06
8.97023e-05
8.36943e-06
0.000109805
1.07059e-05
0.000127727
1.28363e-05
0.000143202
1.5023e-05
0.00015636
1.72582e-05
0.000167511
1.94843e-05
0.000177027
2.16689e-05
0.000185249
2.37739e-05
0.000192271
2.58229e-05
0.000198157
2.78346e-05
0.000202869
2.98385e-05
0.00020641
3.18525e-05
0.000208825
3.38861e-05
0.000210117
3.59624e-05
0.000210446
3.80939e-05
0.000210002
4.0284e-05
0.000208939
4.25272e-05
0.00020737
4.47991e-05
0.00020538
4.71354e-05
0.000202956
4.92054e-05
0.000200308
5.20087e-05
0.00019662
-9.40707e-06
-1.48811e-05
-1.18069e-05
-1.96545e-05
-1.36272e-05
-2.36303e-05
-1.46077e-05
-2.68164e-05
-1.48614e-05
-2.92648e-05
-1.4255e-05
-3.06819e-05
-1.2655e-05
-3.07501e-05
-9.83768e-06
-2.91863e-05
-5.13183e-06
-2.57786e-05
2.2865e-06
-2.05765e-05
1.31115e-05
-1.40115e-05
2.76331e-05
-6.87925e-06
4.54541e-05
-1.19822e-07
6.54344e-05
5.19227e-06
8.59835e-05
8.83337e-06
0.00010578
1.13073e-05
0.000123779
1.33368e-05
0.000139553
1.5354e-05
0.000153099
1.74395e-05
0.000164637
1.95574e-05
0.000174502
2.16711e-05
0.000183012
2.37243e-05
0.000190285
2.57344e-05
0.000196404
2.77166e-05
0.000201349
2.96976e-05
0.00020512
3.16973e-05
0.000207758
3.37235e-05
0.000209263
3.57969e-05
0.000209784
3.79305e-05
0.000209502
4.01273e-05
0.00020857
4.23839e-05
0.000207107
4.46771e-05
0.000205205
4.70468e-05
0.000202854
4.91984e-05
0.00020029
5.20218e-05
0.000196651
5.53947e-05
0.000193962
-5.24639e-06
-1.05996e-05
-7.37928e-06
-1.53413e-05
-8.98705e-06
-1.93779e-05
-9.83454e-06
-2.2712e-05
-1.00264e-05
-2.53889e-05
-9.44558e-06
-2.71393e-05
-7.97199e-06
-2.76767e-05
-5.42812e-06
-2.67382e-05
-1.23691e-06
-2.41009e-05
5.329e-06
-1.97347e-05
1.49428e-05
-1.39185e-05
2.79696e-05
-7.27599e-06
4.42439e-05
-6.16043e-07
6.28862e-05
5.01405e-06
8.25153e-05
9.13109e-06
0.000101869
1.18891e-05
0.000119827
1.39135e-05
0.00013582
1.57836e-05
0.000149714
1.77051e-05
0.000161626
1.96936e-05
0.000171843
2.17178e-05
0.000180654
2.37053e-05
0.000188189
2.56652e-05
0.00019455
2.76087e-05
0.000199734
2.95596e-05
0.000203741
3.15395e-05
0.000206609
3.35539e-05
0.000208337
3.56218e-05
0.000209059
3.77553e-05
0.000208949
3.99581e-05
0.000208158
4.22265e-05
0.000206811
4.45411e-05
0.000205006
4.69396e-05
0.000202736
4.91725e-05
0.00020026
5.20214e-05
0.000196717
5.53919e-05
0.000194004
5.89978e-05
0.000191815
-1.32021e-06
-6.53127e-06
-3.19464e-06
-1.12106e-05
-4.5927e-06
-1.52715e-05
-5.3056e-06
-1.87125e-05
-5.42641e-06
-2.15724e-05
-4.85502e-06
-2.36054e-05
-3.48202e-06
-2.45498e-05
-1.16775e-06
-2.41658e-05
2.58834e-06
-2.22247e-05
8.42671e-06
-1.86449e-05
1.6969e-05
-1.35854e-05
2.86439e-05
-7.51551e-06
4.34353e-05
-1.11175e-06
6.07259e-05
4.67061e-06
7.93427e-05
9.22243e-06
9.81208e-05
1.23776e-05
0.000115911
1.45263e-05
0.000132033
1.63054e-05
0.00014622
1.80641e-05
0.000158485
1.99052e-05
0.000169052
2.18205e-05
0.000178174
2.37272e-05
0.000185981
2.5624e-05
0.000192593
2.75181e-05
0.000198022
2.94301e-05
0.000202273
3.13829e-05
0.000205378
3.33806e-05
0.000207335
3.54392e-05
0.000208269
3.75705e-05
0.000208339
3.97773e-05
0.0002077
4.20569e-05
0.000206478
4.43923e-05
0.00020478
4.68164e-05
0.000202601
4.91271e-05
0.000200215
5.19973e-05
0.000196796
5.53586e-05
0.000194095
5.89824e-05
0.000191842
6.27321e-05
0.00018988
2.37017e-06
-2.68208e-06
7.45804e-07
-7.27217e-06
-4.46768e-07
-1.13237e-05
-1.02206e-06
-1.48326e-05
-1.06484e-06
-1.78313e-05
-4.8614e-07
-2.00966e-05
8.09135e-07
-2.13898e-05
2.9353e-06
-2.14914e-05
6.32303e-06
-2.01739e-05
1.15404e-05
-1.73225e-05
1.91517e-05
-1.30049e-05
2.96038e-05
-7.55867e-06
4.301e-05
-1.53402e-06
5.89558e-05
4.23423e-06
7.64916e-05
9.11076e-06
9.45788e-05
1.27038e-05
0.000112073
1.51171e-05
0.000128223
1.68974e-05
0.000142638
1.85194e-05
0.000155224
2.0203e-05
0.000166132
2.19917e-05
0.000175569
2.38008e-05
0.000183658
2.56206e-05
0.00019053
2.74536e-05
0.000196211
2.93162e-05
0.000200711
3.12338e-05
0.00020406
3.32077e-05
0.000206254
3.52521e-05
0.000207407
3.7378e-05
0.000207672
3.95873e-05
0.000207194
4.18765e-05
0.000206107
4.42326e-05
0.000204522
4.66798e-05
0.000202443
4.90657e-05
0.000200152
5.19525e-05
0.000196862
5.52943e-05
0.000194206
5.89229e-05
0.000191906
6.27068e-05
0.000189898
6.65353e-05
0.000188098
5.825e-06
9.44969e-07
4.44177e-06
-3.53366e-06
3.45209e-06
-7.5458e-06
3.01566e-06
-1.10854e-05
3.0592e-06
-1.41808e-05
3.65847e-06
-1.66303e-05
4.89866e-06
-1.82176e-05
6.87098e-06
-1.87386e-05
9.95348e-06
-1.79732e-05
1.46398e-05
-1.57866e-05
2.14436e-05
-1.21809e-05
3.08089e-05
-7.38072e-06
4.29294e-05
-1.8222e-06
5.75684e-05
3.78603e-06
7.39863e-05
8.83605e-06
9.12785e-05
1.28313e-05
0.000108358
1.56123e-05
0.000124428
1.752e-05
0.000138992
1.90613e-05
0.000151855
2.05942e-05
0.000163086
2.2243e-05
0.000172839
2.39373e-05
0.000181217
2.56661e-05
0.000188358
2.7425e-05
0.000194297
2.92268e-05
0.000199052
3.10986e-05
0.000202652
3.30404e-05
0.000205091
3.50649e-05
0.000206473
3.71813e-05
0.00020694
3.93901e-05
0.000206636
4.16874e-05
0.000205694
4.40637e-05
0.000204232
4.65318e-05
0.000202261
4.89914e-05
0.000200067
5.18921e-05
0.000196907
5.52127e-05
0.000194308
5.88258e-05
0.000191987
6.26269e-05
0.000189943
6.65018e-05
0.00018811
7.03651e-05
0.000186429
9.04663e-06
4.3484e-06
7.89597e-06
-5.95471e-17
7.10484e-06
-3.94633e-06
6.8086e-06
-7.48341e-06
6.9452e-06
-1.06359e-05
7.57879e-06
-1.32251e-05
8.78255e-06
-1.5053e-05
1.06346e-05
-1.59302e-05
1.34629e-05
-1.56484e-05
1.77001e-05
-1.40613e-05
2.38052e-05
-1.11246e-05
3.22104e-05
-6.9698e-06
4.31599e-05
-1.93302e-06
5.65498e-05
3.39647e-06
7.18325e-05
8.46668e-06
8.82514e-05
1.27599e-05
0.000104806
1.59503e-05
0.000120685
1.81106e-05
0.000135311
1.96664e-05
0.000148397
2.10779e-05
0.000159924
2.25835e-05
0.000169985
2.41484e-05
0.000178657
2.57719e-05
0.000186073
2.74435e-05
0.000192277
2.91717e-05
0.000197294
3.09863e-05
0.000201151
3.28861e-05
0.000203841
3.4883e-05
0.000205461
3.6984e-05
0.000206141
3.91894e-05
0.000206021
4.14923e-05
0.000205234
4.38875e-05
0.000203903
4.63749e-05
0.000202048
4.89058e-05
0.000199955
5.18189e-05
0.000196929
5.51203e-05
0.000194392
5.87125e-05
0.000192066
6.25031e-05
0.000190003
6.64046e-05
0.000188142
7.03246e-05
0.000186436
7.41893e-05
0.000184848
1.20397e-05
7.52854e-06
1.11125e-05
3.32497e-06
1.05147e-05
-5.32491e-07
1.03599e-05
-4.03728e-06
1.05952e-05
-7.21146e-06
1.12742e-05
-9.89776e-06
1.24606e-05
-1.19155e-05
1.42207e-05
-1.30894e-05
1.68399e-05
-1.32257e-05
2.06982e-05
-1.21724e-05
2.62038e-05
-9.85197e-06
3.37655e-05
-6.32531e-06
4.36552e-05
-1.84103e-06
5.58715e-05
3.12105e-06
7.00296e-05
8.077e-06
8.55192e-05
1.25376e-05
0.000101455
1.60961e-05
0.000117033
1.86021e-05
0.000131628
2.02918e-05
0.000144871
2.16442e-05
0.000156655
2.30172e-05
0.000167012
2.44453e-05
0.000175977
2.59495e-05
0.000183673
2.75205e-05
0.000190148
2.91626e-05
0.000195432
3.09071e-05
0.000199552
3.27534e-05
0.000202501
3.47128e-05
0.000204367
3.67919e-05
0.00020527
3.89885e-05
0.000205344
4.12945e-05
0.000204723
4.37068e-05
0.000203532
4.6212e-05
0.000201802
4.88113e-05
0.000199813
5.17352e-05
0.000196924
5.50196e-05
0.000194457
5.85911e-05
0.000192135
6.23622e-05
0.000190062
6.62586e-05
0.000188184
7.02131e-05
0.000186458
7.41428e-05
0.000184852
7.7982e-05
0.00018334
1.48107e-05
1.04887e-05
1.40967e-05
6.44001e-06
1.36879e-05
2.68978e-06
1.36735e-05
-7.56535e-07
1.4013e-05
-3.92039e-06
1.47477e-05
-6.66437e-06
1.59331e-05
-8.8243e-06
1.76265e-05
-1.02404e-05
2.00761e-05
-1.07314e-05
2.36148e-05
-1.01463e-05
2.86093e-05
-8.38462e-06
3.5434e-05
-5.45626e-06
4.43765e-05
-1.53192e-06
5.55011e-05
3.00279e-06
6.85667e-05
7.73882e-06
8.30987e-05
1.22312e-05
9.83359e-05
1.60588e-05
0.00011351
1.89368e-05
0.000127976
2.08786e-05
0.000141302
2.22645e-05
0.000153298
2.35413e-05
0.000163925
2.48354e-05
0.000173178
2.62099e-05
0.000181157
2.76676e-05
0.000187907
2.92113e-05
0.000193463
3.08728e-05
0.000197853
3.26528e-05
0.000201065
3.45633e-05
0.000203184
3.66117e-05
0.000204321
3.87934e-05
0.0002046
4.10978e-05
0.000204155
4.35248e-05
0.000203114
4.60457e-05
0.000201518
4.871e-05
0.000199638
5.16431e-05
0.000196889
5.49129e-05
0.000194498
5.84641e-05
0.000192193
6.22143e-05
0.000190116
6.6095e-05
0.000188226
7.00485e-05
0.000186487
7.40195e-05
0.000184865
7.79305e-05
0.000183341
8.17227e-05
0.000181891
1.73669e-05
1.3233e-05
1.6857e-05
9.34624e-06
1.66303e-05
5.71753e-06
1.67559e-05
2.35088e-06
1.72023e-05
-7.73812e-07
1.80016e-05
-3.53965e-06
1.92002e-05
-5.79857e-06
2.08492e-05
-7.40524e-06
2.31639e-05
-8.19104e-06
2.6438e-05
-8.01021e-06
3.09949e-05
-6.74741e-06
3.71824e-05
-4.37701e-06
4.52779e-05
-1.00324e-06
5.54051e-05
3.06878e-06
6.74255e-05
7.50525e-06
8.09946e-05
1.19105e-05
9.54694e-05
1.58837e-05
0.00011015
1.90899e-05
0.000124392
2.13611e-05
0.000137719
2.28946e-05
0.000149869
2.41407e-05
0.000160734
2.53206e-05
0.000170261
2.65615e-05
0.000178521
2.78957e-05
0.000185551
2.93305e-05
0.000191384
3.08964e-05
0.000196046
3.25962e-05
0.000199529
3.4445e-05
0.000201909
3.64516e-05
0.000203288
3.86105e-05
0.000203783
4.09078e-05
0.000203526
4.33454e-05
0.000202643
4.58799e-05
0.000201191
4.86042e-05
0.000199426
5.15451e-05
0.000196819
5.48024e-05
0.000194512
5.83338e-05
0.000192236
6.20618e-05
0.000190162
6.59245e-05
0.000188264
6.98657e-05
0.000186515
7.38395e-05
0.000184883
7.77973e-05
0.000183347
8.1667e-05
0.000181889
8.53954e-05
0.000180492
1.97165e-05
1.57677e-05
1.94009e-05
1.20459e-05
1.93507e-05
8.54948e-06
1.96143e-05
5.28015e-06
2.01701e-05
2.21904e-06
2.10411e-05
-5.37358e-07
2.22644e-05
-2.85604e-06
2.38879e-05
-4.60448e-06
2.60986e-05
-5.62995e-06
2.91538e-05
-5.7915e-06
3.33412e-05
-4.96768e-06
3.89744e-05
-3.10778e-06
4.63243e-05
-2.62027e-07
5.55459e-05
3.33411e-06
6.6582e-05
7.41603e-06
7.92001e-05
1.16379e-05
9.28721e-05
1.56401e-05
0.000106983
1.9079e-05
0.000120911
2.16912e-05
0.000134152
2.34764e-05
0.00014639
2.47835e-05
0.000157452
2.58937e-05
0.000167235
2.70088e-05
0.000175769
2.82149e-05
0.000183076
2.95322e-05
0.000189189
3.09909e-05
0.000194131
3.2597e-05
0.000197889
3.43698e-05
0.000200538
3.63223e-05
0.000202168
3.84477e-05
0.000202888
4.07308e-05
0.000202829
4.31734e-05
0.000202116
4.57186e-05
0.000200816
4.8497e-05
0.000199172
5.14435e-05
0.00019671
5.46903e-05
0.000194495
5.82027e-05
0.000192259
6.19071e-05
0.000190196
6.57499e-05
0.000188296
6.9676e-05
0.000186538
7.36406e-05
0.000184899
7.76044e-05
0.000183356
8.15257e-05
0.00018189
8.53363e-05
0.000180488
8.89872e-05
0.000179135
2.1869e-05
1.81e-05
2.17385e-05
1.45437e-05
2.18574e-05
1.1186e-05
2.22569e-05
8.02789e-06
2.29234e-05
5.05035e-06
2.38715e-05
2.33019e-06
2.51301e-05
-1.23666e-08
2.67441e-05
-1.85902e-06
2.88767e-05
-3.07249e-06
3.17538e-05
-3.51753e-06
3.56286e-05
-3.07439e-06
4.07857e-05
-1.67235e-06
4.74793e-05
6.78348e-07
5.58852e-05
3.80302e-06
6.60077e-05
7.49553e-06
7.77036e-05
1.1464e-05
9.05529e-05
1.53933e-05
0.000104033
1.89518e-05
0.000117562
2.18528e-05
0.000130632
2.39485e-05
0.000142889
2.54224e-05
0.000154098
2.65329e-05
0.000164107
2.75506e-05
0.000172901
2.86324e-05
0.000180486
2.98259e-05
0.00018688
3.11692e-05
0.000192103
3.26692e-05
0.000196142
3.43518e-05
0.000199064
3.62354e-05
0.000200953
3.83155e-05
0.00020191
4.05746e-05
0.000202059
4.30145e-05
0.000201525
4.55665e-05
0.000200387
4.8392e-05
0.000198873
5.13417e-05
0.00019656
5.45791e-05
0.000194442
5.80734e-05
0.000192259
6.17532e-05
0.000190217
6.55737e-05
0.000188319
6.94823e-05
0.000186557
7.34346e-05
0.000184911
7.73922e-05
0.000183361
8.13224e-05
0.00018189
8.51885e-05
0.000180483
8.89255e-05
0.000179128
9.24886e-05
0.000177812
2.38344e-05
2.02381e-05
2.38791e-05
1.68453e-05
2.41611e-05
1.36302e-05
2.46928e-05
1.05926e-05
2.54706e-05
7.71412e-06
2.64994e-05
5.05353e-06
2.78023e-05
2.71824e-06
2.94213e-05
8.12262e-07
3.14981e-05
-5.40817e-07
3.42311e-05
-1.21441e-06
3.78442e-05
-1.09494e-06
4.25908e-05
-9.59729e-08
4.8714e-05
1.79992e-06
5.6391e-05
4.46934e-06
6.56693e-05
7.75664e-06
7.64846e-05
1.14245e-05
8.85118e-05
1.51961e-05
0.000101318
1.87719e-05
0.000114373
2.18708e-05
0.000127194
2.42734e-05
0.000139393
2.59994e-05
0.000150693
2.72037e-05
0.000160889
2.81761e-05
0.000169925
2.91498e-05
0.000177778
3.02195e-05
0.000184451
3.14421e-05
0.000189958
3.28264e-05
0.000194282
3.44053e-05
0.000197484
3.62049e-05
0.000199639
3.82255e-05
0.000200842
4.04492e-05
0.000201211
4.28769e-05
0.000200867
4.54294e-05
0.0001999
4.82934e-05
0.000198523
5.12434e-05
0.000196363
5.44717e-05
0.00019435
5.79482e-05
0.000192233
6.16034e-05
0.000190219
6.53996e-05
0.00018833
6.92874e-05
0.000186568
7.32245e-05
0.000184917
7.71729e-05
0.000183362
8.10993e-05
0.000181887
8.49769e-05
0.000180476
8.87726e-05
0.000179119
9.24246e-05
0.000177804
9.58925e-05
0.000176519
2.56224e-05
2.21913e-05
2.58335e-05
1.89577e-05
2.62715e-05
1.58861e-05
2.69325e-05
1.29753e-05
2.78203e-05
1.02075e-05
2.89334e-05
7.6254e-06
3.02862e-05
5.32356e-06
3.19223e-05
3.39294e-06
3.39628e-05
1.94459e-06
3.65815e-05
1.09179e-06
3.99767e-05
9.42943e-07
4.43736e-05
1.59352e-06
4.99977e-05
3.08013e-06
5.70272e-05
5.31997e-06
6.55385e-05
8.20217e-06
7.55214e-05
1.15393e-05
8.67422e-05
1.50936e-05
9.88464e-05
1.86021e-05
0.000111373
2.17997e-05
0.000123867
2.44504e-05
0.000135932
2.64632e-05
0.000147258
2.78563e-05
0.000157597
2.88601e-05
0.000166849
2.97601e-05
0.000174955
3.0716e-05
0.000181904
3.18177e-05
0.000187694
3.30808e-05
0.000192305
3.45447e-05
0.000195792
3.62458e-05
0.000198221
3.81913e-05
0.000199679
4.03653e-05
0.000200277
4.27691e-05
0.000200135
4.53149e-05
0.00019935
4.82067e-05
0.00019812
5.11528e-05
0.000196116
5.43711e-05
0.000194215
5.78301e-05
0.000192175
6.14603e-05
0.0001902
6.52308e-05
0.000188327
6.9095e-05
0.000186569
7.30134e-05
0.000184917
7.6949e-05
0.000183358
8.0869e-05
0.000181878
8.4745e-05
0.000180465
8.85545e-05
0.000179106