/*--------------------------------*- C++ -*----------------------------------*\
  =========                 |
  \\      /  F ield         | OpenFOAM: The Open Source CFD Toolbox
   \\    /   O peration     | Website:  https://openfoam.org
    \\  /    A nd           | Version:  7
     \\/     M anipulation  |
\*---------------------------------------------------------------------------*/
FoamFile
{
    version     2.0;
    format      ascii;
    class       volVectorField;
    location    "20000";
    object      U;
}
// * * * * * * * * * * * * * * * * * * * * * * * * * * * * * * * * * * * * * //

dimensions      [0 1 -1 0 0 0 0];

internalField   nonuniform List<vector> 
10981
(
(0.00572788 -1.45308e-05 -1.18879e-23)
(0.0117042 -3.52109e-05 7.71951e-24)
(0.00625969 -4.29013e-05 -1.25293e-23)
(0.00553202 -1.14171e-05 -2.78404e-23)
(0.015111 -2.96773e-05 -5.07187e-24)
(0.0122438 -0.000107567 -1.92618e-21)
(0.011866 1.30556e-05 0)
(0.00641188 -0.000307853 1.04675e-19)
(0.00598796 5.38973e-05 2.7429e-23)
(0.0176498 -2.80729e-06 3.88582e-24)
(0.0154365 -0.000157149 1.25833e-21)
(0.0156211 8.94267e-05 0)
(0.0125583 -0.000587184 -1.51828e-22)
(0.013096 0.000216515 2.42435e-21)
(0.00562551 -0.000673664 1.07563e-19)
(0.00736573 0.000435972 6.52607e-20)
(0.0196515 4.60963e-05 0)
(0.0177412 -0.00019296 -3.77632e-24)
(0.0184004 0.000199652 0)
(0.0157269 -0.000732029 -2.22584e-20)
(0.0172364 0.000406554 -1.62848e-21)
(0.0117259 -0.00130038 -7.11038e-20)
(0.0153763 0.00103219 4.14591e-20)
(0.00407397 -0.000923406 6.36907e-24)
(0.00896919 0.00121117 0)
(0.0212215 0.000109511 -5.14592e-24)
(0.0195574 -0.000209554 7.72709e-22)
(0.0205043 0.000329191 -7.09362e-24)
(0.0179218 -0.000821294 0)
(0.0201159 0.000621219 -9.84167e-24)
(0.0150075 -0.00158946 0)
(0.0196479 0.00143866 -5.43561e-20)
(0.00956227 -0.00191472 1.38784e-19)
(0.0175847 0.00249894 -8.44808e-20)
(0.00207015 -0.000796964 1.79648e-19)
(0.0105228 0.00245623 -4.99253e-19)
(0.0224338 0.000179298 0)
(0.0210115 -0.000208522 -6.41741e-22)
(0.0220641 0.000462244 0)
(0.0196095 -0.000875939 1.3374e-20)
(0.0221147 0.000831812 -9.02557e-22)
(0.0172644 -0.00174042 0)
(0.0223098 0.00177324 2.01039e-20)
(0.0128889 -0.00241101 -8.98385e-20)
(0.0216625 0.00313396 1.11892e-21)
(0.00617318 -0.00190244 1.2497e-19)
(0.0190934 0.00461955 3.13343e-19)
(0.000535815 -0.000377814 0)
(0.010889 0.00377357 5.21936e-23)
(0.0233616 0.000249847 0)
(0.0221687 -0.000194113 8.6809e-24)
(0.0232026 0.000589473 0)
(0.0209543 -0.000903653 -1.11857e-20)
(0.0234699 0.00102334 7.36203e-22)
(0.0189759 -0.0018179 2.58737e-23)
(0.0239481 0.00203553 1.47423e-20)
(0.0153091 -0.00267343 0)
(0.0239028 0.0035336 3.95213e-20)
(0.009181 -0.0026033 -7.93792e-20)
(0.0226802 0.00543276 -1.00483e-19)
(0.00290333 -0.00117812 2.82574e-23)
(0.0187781 0.0067408 9.99038e-24)
(-0.000135168 -4.56008e-05 1.1308e-21)
(0.00990145 0.00444266 2.12567e-19)
(0.0240754 0.000318348 3.00606e-24)
(0.0230822 -0.000170731 0)
(0.0240349 0.000707023 3.78492e-24)
(0.0220339 -0.000909236 9.17545e-24)
(0.0243866 0.00119252 0)
(0.0203279 -0.00184964 0)
(0.0249442 0.00223547 -1.14894e-20)
(0.0172061 -0.00280154 -2.7095e-23)
(0.0251256 0.00377738 -2.7944e-20)
(0.0116459 -0.0030538 -5.86106e-20)
(0.024464 0.00581813 -1.49112e-23)
(0.00508727 -0.00187381 1.74649e-23)
(0.0219132 0.00770025 0)
(0.000916075 -0.000422565 -1.38571e-19)
(0.0170168 0.00791808 2.18175e-23)
(-0.000373757 0.000139762 0)
(0.00856583 0.00454288 -7.1882e-20)
(0.0246336 0.000383858 5.14106e-24)
(0.0238024 -0.000141281 -3.91913e-22)
(0.0246554 0.000814244 3.14833e-24)
(0.0228998 -0.000896798 -7.74661e-21)
(0.0250209 0.00134172 -3.45286e-24)
(0.0214148 -0.00184746 -1.85421e-23)
(0.0255638 0.00239148 -1.7594e-23)
(0.0187331 -0.00284637 1.98131e-23)
(0.0258044 0.0039257 6.69848e-22)
(0.0137722 -0.00333137 4.77097e-20)
(0.0253729 0.00598401 4.79965e-20)
(0.00716314 -0.00243323 9.20871e-24)
(0.0234584 0.00806808 4.78581e-20)
(0.00216878 -0.000907451 -4.37629e-24)
(0.0198928 0.009045 0)
(-4.58591e-05 7.21934e-05 -7.32741e-24)
(0.0149378 0.00822239 4.43557e-20)
(-0.00048012 0.000249897 8.74996e-20)
(0.00734729 0.00435489 -5.06518e-20)
(0.0250803 0.000446411 0)
(0.0243746 -0.000107805 3.35019e-22)
(0.0251319 0.000911972 0)
(0.0235939 -0.000870415 6.72492e-21)
(0.0254767 0.00147334 -2.86126e-24)
(0.0222949 -0.00181878 1.57019e-20)
(0.025968 0.00251716 -6.95339e-21)
(0.0199763 -0.00283427 0)
(0.0261993 0.004018 1.65273e-20)
(0.0156162 -0.00348488 -3.77669e-23)
(0.0258605 0.00603477 -3.66025e-20)
(0.00920377 -0.00287558 7.51846e-24)
(0.0242786 0.00816975 -3.46451e-20)
(0.0035423 -0.001378 -1.25287e-23)
(0.0213793 0.0094781 0)
(0.000572934 -0.000192621 4.36439e-24)
(0.017603 0.00948636 0)
(-0.000540509 0.000386084 -6.87672e-20)
(0.0130541 0.00802357 3.14117e-20)
(-0.000532167 0.000315939 5.93647e-20)
(0.0063495 0.00404643 1.52914e-19)
(0.025447 0.000506433 0)
(0.0248367 -7.12656e-05 2.91011e-22)
(0.0255103 0.00100136 0)
(0.0241531 -0.000833291 0)
(0.0258193 0.00159055 0)
(0.0230109 -0.00176942 -1.36971e-20)
(0.0262467 0.00262094 5.89343e-21)
(0.0209941 -0.00278178 1.57923e-23)
(0.0264427 0.00407639 -1.27006e-20)
(0.0172021 -0.00354384 -3.32234e-20)
(0.0261392 0.00602374 0)
(0.0111852 -0.00321507 4.86702e-24)
(0.0247565 0.008139 2.52208e-20)
(0.00507967 -0.00182743 5.15035e-20)
(0.0222411 0.00960795 -1.27752e-23)
(0.00134629 -0.00049995 2.61886e-24)
(0.019053 0.0100185 0)
(-0.000270226 0.000275123 3.97678e-20)
(0.0155109 0.00935724 0)
(-0.000817186 0.00058645 4.69027e-20)
(0.0114851 0.00757719 -9.5259e-20)
(-0.00056471 0.000356441 -7.53782e-20)
(0.00555068 0.00370133 4.8053e-19)
(0.0257559 0.000564417 -3.47266e-24)
(0.0252174 -3.19609e-05 -2.61125e-22)
(0.0258206 0.00108351 0)
(0.0246091 -0.000787833 4.85604e-21)
(0.0260885 0.00169534 8.88592e-24)
(0.0235973 -0.00170425 0)
(0.0264496 0.00270759 0)
(0.0218329 -0.00269989 0)
(0.0266013 0.00411229 1.08547e-20)
(0.018554 -0.00352964 5.73705e-20)
(0.0263077 0.00597833 2.17824e-20)
(0.0130654 -0.00345721 4.10812e-24)
(0.0250611 0.00803869 -3.99098e-20)
(0.00676311 -0.00224974 3.65595e-23)
(0.0228012 0.00958538 -9.63279e-24)
(0.00230416 -0.000836228 3.54087e-20)
(0.0199546 0.0102286 1.63443e-20)
(0.000143556 9.72109e-05 5.34391e-25)
(0.0168975 0.00996662 8.26492e-21)
(-0.000741987 0.000577764 -2.65866e-20)
(0.013742 0.008919 -5.1858e-20)
(-0.000990721 0.00071515 2.91678e-20)
(0.0102042 0.00702394 -2.95176e-19)
(-0.000588144 0.000378853 0)
(0.00491271 0.00334806 -3.10878e-19)
(0.0260223 0.000620796 -6.22897e-24)
(0.0255381 9.93301e-06 3.64098e-24)
(0.0260827 0.0011592 3.53165e-24)
(0.024987 -0.000735956 -4.37342e-21)
(0.0263083 0.00178907 2.39606e-22)
(0.0240825 -0.00162707 -9.82534e-21)
(0.0266051 0.00278016 -1.62694e-23)
(0.0225289 -0.00259728 0)
(0.0267103 0.00413152 -8.79003e-21)
(0.0196966 -0.00346084 -2.49727e-20)
(0.0264146 0.00591075 -1.87815e-20)
(0.014804 -0.00360605 0)
(0.0252715 0.00789801 5.0956e-22)
(0.00854927 -0.00263091 -7.91039e-20)
(0.0232042 0.0094778 -3.29873e-24)
(0.00346311 -0.00119856 -3.10602e-20)
(0.0205861 0.0102714 5.62956e-22)
(0.000698327 -0.000121801 0)
(0.0178025 0.0102544 -6.01114e-21)
(-0.000525689 0.000486006 -3.76113e-24)
(0.0150481 0.00956976 6.84724e-20)
(-0.00103302 0.000774801 1.70982e-20)
(0.0122796 0.00833053 8.54217e-20)
(-0.00110769 0.000791361 1.58148e-20)
(0.0091721 0.00642597 1.94031e-19)
(-0.000609461 0.000391405 3.90623e-21)
(0.00442814 0.00302163 -3.71093e-19)
(0.0262568 0.00067583 0)
(0.0258147 5.44957e-05 6.52852e-24)
(0.0263097 0.00122902 0)
(0.0253067 -0.000678769 0)
(0.0264939 0.00187269 -1.09096e-23)
(0.0244897 -0.00154125 8.84224e-21)
(0.0267298 0.00284067 0)
(0.0231121 -0.00248006 1.78368e-23)
(0.026789 0.00413732 7.91464e-21)
(0.0206601 -0.00335274 0)
(0.0264854 0.00582809 -1.52254e-20)
(0.0163745 -0.00367009 0)
(0.0254258 0.00773301 1.38546e-20)
(0.0103824 -0.00295428 7.1036e-20)
(0.0235168 0.00931906 0)
(0.0048223 -0.00157729 7.26127e-25)
(0.0210727 0.0102171 -1.05763e-20)
(0.001415 -0.000380911 2.10608e-20)
(0.018466 0.0103714 2.82442e-21)
(-0.000202788 0.000351069 0)
(0.0159285 0.00991284 -2.44016e-20)
(-0.000930038 0.000739701 -1.16557e-20)
(0.0135019 0.00899341 5.46224e-20)
(-0.00122503 0.000895655 -1.78636e-20)
(0.0110911 0.00767307 1.09272e-19)
(-0.00119645 0.000835933 -2.98425e-21)
(0.00837998 0.00584943 0)
(-0.000630537 0.000401768 -1.033e-20)
(0.00409832 0.00275805 4.16006e-19)
(0.0264672 0.000729632 5.12889e-24)
(0.0260584 0.000101708 -1.15351e-23)
(0.0265101 0.00129316 0)
(0.0255833 -0.000617133 -1.29497e-23)
(0.026655 0.00194661 -7.42896e-24)
(0.0248377 -0.00144887 0)
(0.0268338 0.00288983 -3.17208e-21)
(0.023607 -0.00235281 -1.67086e-20)
(0.0268488 0.00413195 0)
(0.0214723 -0.00321833 -1.94293e-23)
(0.0265343 0.00573432 1.3774e-20)
(0.0177614 -0.0036615 3.65317e-20)
(0.0255456 0.00755131 0)
(0.0122015 -0.00320625 -8.14008e-23)
(0.0237745 0.00912607 1.75158e-20)
(0.00636353 -0.00195605 0)
(0.0214756 0.0101006 9.57828e-21)
(0.00231566 -0.000678828 -1.9275e-20)
(0.018999 0.0103861 -3.78266e-21)
(0.000234454 0.000177696 -2.07238e-24)
(0.0165938 0.01009 -2.49424e-24)
(-0.000737679 0.000660252 -9.58784e-21)
(0.0143453 0.00936883 -7.86878e-20)
(-0.00119139 0.000898035 6.11372e-21)
(0.0122354 0.00832851 -1.45687e-19)
(-0.00136458 0.000969029 0)
(0.0101682 0.0070222 -1.30001e-19)
(-0.00127049 0.000869399 7.85703e-21)
(0.00781085 0.005359 -2.57542e-19)
(-0.000649202 0.000409756 8.46924e-24)
(0.0038674 0.00255956 2.16045e-22)
(0.0266587 0.000782126 0)
(0.0262776 0.000151477 5.0931e-24)
(0.0266903 0.00135186 0)
(0.0258282 -0.000551768 1.19161e-23)
(0.0267979 0.00201086 -1.7738e-22)
(0.025141 -0.00135207 -6.62689e-21)
(0.0269238 0.00292813 1.21784e-22)
(0.0240332 -0.00221912 2.97463e-20)
(0.0268969 0.00411592 0)
(0.022162 -0.00306679 -1.4137e-23)
(0.0265702 0.00563152 1.05909e-23)
(0.0189661 -0.00359492 -4.84133e-22)
(0.0256427 0.00735855 1.09904e-23)
(0.0139481 -0.00337926 -5.80578e-20)
(0.0239952 0.00890924 -1.56098e-20)
(0.00805086 -0.00231487 0)
(0.021826 0.00994044 -1.68703e-20)
(0.0034169 -0.00100963 1.79481e-20)
(0.0194557 0.0103334 1.26116e-21)
(0.000806342 -3.51011e-05 -5.1077e-24)
(0.0171412 0.0101662 0)
(-0.000460924 0.000545913 8.37314e-21)
(0.0149951 0.00958787 1.0867e-21)
(-0.00107646 0.00085541 5.07896e-21)
(0.0130369 0.00871896 5.29278e-20)
(-0.00137576 0.000996324 0)
(0.0112394 0.00765476 8.74099e-20)
(-0.00147606 0.00102279 -3.2058e-24)
(0.00948522 0.00644899 -1.45514e-19)
(-0.00133219 0.000894354 -1.07511e-23)
(0.00737836 0.0049684 2.78116e-19)
(-0.00066376 0.000415632 2.0275e-23)
(0.00367265 0.00239355 2.44944e-22)
(0.0268354 0.000833048 0)
(0.0264784 0.000203577 -9.52861e-24)
(0.0268545 0.00140508 4.7042e-24)
(0.02605 -0.000483039 -2.69353e-21)
(0.0269271 0.00206566 -9.85753e-24)
(0.0254111 -0.00125185 6.14417e-21)
(0.0270042 0.00295583 5.23627e-21)
(0.0244065 -0.00208141 -1.33411e-20)
(0.0269381 0.00409029 5.24163e-21)
(0.0227537 -0.00290505 -1.39357e-20)
(0.0265987 0.00552128 -1.02112e-20)
(0.0200013 -0.00348552 -2.90097e-20)
(0.0257248 0.00715751 -9.72415e-24)
(0.0155735 -0.00347302 1.2307e-22)
(0.0241902 0.00867453 1.36598e-20)
(0.00983251 -0.00263338 0)
(0.0221413 0.00974761 7.61772e-21)
(0.00472394 -0.00136229 -3.35766e-20)
(0.0198657 0.0102319 1.01287e-24)
(0.00153764 -0.000287714 0)
(0.0176206 0.0101747 9.84594e-21)
(-8.89058e-05 0.000397216 1.93976e-24)
(0.0155386 0.00971113 4.60769e-20)
(-0.000893596 0.000780669 -4.37364e-21)
(0.0136625 0.00896508 -3.9313e-20)
(-0.00130912 0.000978415 0)
(0.0119954 0.00804533 -6.23681e-20)
(-0.00151881 0.00106751 0)
(0.0104863 0.00704505 1.09227e-21)
(-0.00156744 0.00106258 9.29402e-21)
(0.00894908 0.00597567 -3.16323e-19)
(-0.00138157 0.000913229 2.66903e-20)
(0.00700222 0.00463508 -1.48403e-22)
(-0.000677531 0.00042162 -2.06581e-23)
(0.00350043 0.00225021 5.21845e-19)
(0.0270004 0.000882023 0)
(0.026665 0.000257584 -8.71997e-24)
(0.0270059 0.00145259 4.30645e-24)
(0.0262548 -0.000411565 2.5275e-21)
(0.0270458 0.00211101 -4.43044e-24)
(0.0256566 -0.00114954 0)
(0.027078 0.00297294 -4.74629e-21)
(0.0247391 -0.00194181 0)
(0.0269757 0.00405479 -4.96903e-21)
(0.0232683 -0.00273769 1.26674e-20)
(0.0266238 0.0054042 9.69562e-21)
(0.0208868 -0.00334684 0)
(0.0257969 0.00695065 6.89113e-24)
(0.0170437 -0.00349392 4.7525e-20)
(0.0243663 0.0084262 -1.26651e-20)
(0.0116461 -0.00289388 1.03268e-24)
(0.0224318 0.00952856 -7.21768e-21)
(0.00622598 -0.00172099 1.57249e-20)
(0.0202453 0.0100922 0)
(0.00245255 -0.000577871 1.14383e-20)
(0.0180588 0.0101333 -8.5364e-21)
(0.000397693 0.000212453 -7.52158e-21)
(0.0160205 0.00976913 -3.71478e-20)
(-0.000639224 0.000676192 -4.16984e-21)
(0.0141907 0.0091216 9.5912e-22)
(-0.00118352 0.000930423 -1.30661e-21)
(0.0125893 0.00830345 4.88136e-20)
(-0.00148495 0.00106681 1.69837e-21)
(0.0111938 0.00742038 7.14357e-20)
(-0.00163466 0.00112002 -6.11214e-21)
(0.00988397 0.00652765 1.05552e-19)
(-0.00164099 0.00109339 -1.45468e-20)
(0.0084792 0.00556643 1.67213e-22)
(-0.00142557 0.000931139 3.8349e-23)
(0.00666107 0.00434385 1.49917e-22)
(-0.000691514 0.000428537 1.17236e-19)
(0.00333624 0.00212098 -8.78731e-24)
(0.0271558 0.000928532 0)
(0.0268409 0.000313014 0)
(0.0271469 0.00149422 0)
(0.0264474 -0.000337866 8.96328e-24)
(0.0271564 0.00214674 4.11156e-24)
(0.0258842 -0.00104585 1.2096e-24)
(0.0271476 0.00297966 2.23023e-21)
(0.0250407 -0.00180175 0)
(0.027012 0.00401023 1.65309e-23)
(0.0237223 -0.00256797 -1.9641e-23)
(0.0266482 0.00528108 -1.7214e-23)
(0.0216465 -0.00318967 0)
(0.0258628 0.00673941 -7.22048e-21)
(0.0183426 -0.00345354 -2.15426e-20)
(0.024528 0.00816743 1.12148e-20)
(0.0134259 -0.00308417 0)
(0.0227034 0.00928796 -6.15693e-23)
(0.00789354 -0.00206643 -1.09037e-24)
(0.0206039 0.00992092 8.96498e-22)
(0.00356988 -0.000899419 -1.09129e-20)
(0.0184717 0.0100523 6.28378e-21)
(0.00102325 -1.00344e-05 1.44843e-20)
(0.0164661 0.00977892 1.574e-20)
(-0.000301395 0.000541078 3.95401e-21)
(0.0146626 0.00921689 8.47315e-22)
(-0.00100016 0.000856153 1.17771e-21)
(0.0130931 0.00847924 2.26217e-23)
(-0.00139715 0.00103743 -9.13455e-23)
(0.0117506 0.00767523 0)
(-0.00162548 0.00113186 -3.05198e-24)
(0.0105446 0.00687796 -7.24723e-23)
(-0.00172777 0.00116099 -9.28168e-21)
(0.00935459 0.00607537 0)
(-0.00170535 0.00112157 0)
(0.0080504 0.0052054 -1.75046e-19)
(-0.00146751 0.00095052 -4.38999e-20)
(0.0063329 0.00407958 3.27029e-19)
(-0.000707527 0.000437685 6.91744e-20)
(0.0031764 0.00200229 2.77982e-22)
(0.0273037 0.000971992 6.75883e-24)
(0.0270085 0.000369068 0)
(0.0272797 0.00152967 0)
(0.026631 -0.000262612 1.57517e-23)
(0.0272608 0.00217277 -1.25229e-22)
(0.0260987 -0.00094156 0)
(0.0272148 0.00297589 -7.80831e-24)
(0.0253188 -0.00166229 1.89636e-23)
(0.0270489 0.00395649 0)
(0.0241289 -0.00239798 9.61827e-21)
(0.0266741 0.00515242 -2.96122e-23)
(0.0223039 -0.00302191 1.30778e-23)
(0.0259253 0.0065251 6.92466e-21)
(0.0194709 -0.00336601 -1.93358e-20)
(0.0246785 0.0079007 -3.95724e-22)
(0.0151116 -0.00319943 5.84345e-24)
(0.0229599 0.0090295 -5.91942e-24)
(0.00967815 -0.002378 1.35934e-20)
(0.0209473 0.00972236 3.51535e-22)
(0.00489747 -0.00124149 0)
(0.0188683 0.00993786 -5.69058e-21)
(0.001814 -0.000270153 -1.39974e-20)
(0.0168902 0.00975006 0)
(0.000137894 0.00037312 -5.34495e-24)
(0.0151016 0.00926679 2.21261e-20)
(-0.000752227 0.000755618 1.25863e-21)
(0.0135449 0.00859857 0)
(-0.00125977 0.000984264 -2.3156e-21)
(0.0122237 0.00785525 -8.61051e-23)
(-0.00156536 0.00111594 -2.47015e-24)
(0.0110652 0.00711887 0)
(-0.00173793 0.0011826 7.04932e-21)
(0.00997382 0.00639926 0)
(-0.00180814 0.00119772 1.06452e-23)
(0.00887064 0.00567354 1.16567e-19)
(-0.00176503 0.00115058 0)
(0.00763894 0.00487658 -1.82335e-19)
(-0.00151079 0.000973631 -5.14586e-20)
(0.0060079 0.00383339 3.39519e-19)
(-0.000725225 0.000446853 -7.9317e-20)
(0.00300575 0.00188258 0)
(0.0274457 0.00101179 6.23439e-24)
(0.0271696 0.000425001 -6.99548e-24)
(0.027406 0.00155863 -6.67208e-24)
(0.0268082 -0.000186471 9.09277e-22)
(0.0273606 0.00218921 1.14871e-22)
(0.0263039 -0.000837252 3.90676e-21)
(0.0272812 0.0029619 7.18727e-24)
(0.0255792 -0.00152442 8.20647e-21)
(0.0270879 0.00389386 0)
(0.0244985 -0.00222936 -3.53295e-22)
(0.0267031 0.00501838 0)
(0.02288 -0.00284887 8.92664e-21)
(0.0259866 0.00630858 5.97735e-21)
(0.0204422 -0.00324533 1.75985e-20)
(0.0248204 0.0076282 -9.88613e-21)
(0.0166566 -0.00324277 7.99132e-25)
(0.0232039 0.00875591 6.01405e-21)
(0.0115164 -0.00263691 -1.26546e-20)
(0.0212789 0.00949983 2.91074e-22)
(0.00642702 -0.00158855 9.59783e-21)
(0.0192546 0.00979375 1.04224e-25)
(0.00279484 -0.000564821 1.34402e-20)
(0.0173023 0.00968833 -4.05632e-24)
(0.000701755 0.000169979 3.83564e-21)
(0.0155224 0.00928034 -1.82129e-20)
(-0.000427457 0.000627105 4.8322e-23)
(0.013967 0.00867625 -2.42541e-23)
(-0.00106933 0.000908118 6.867e-23)
(0.0126488 0.00798444 3.66136e-20)
(-0.00146089 0.00107804 0)
(0.0115083 0.00729224 4.56979e-23)
(-0.0016991 0.00117704 0)
(0.0104629 0.00662325 0)
(-0.00183357 0.00122739 1.00778e-23)
(0.00945193 0.00597128 -8.48054e-23)
(-0.00188111 0.00123433 0)
(0.00840798 0.0053066 -1.19929e-19)
(-0.00182454 0.00118311 0)
(0.00723291 0.00456931 -7.66887e-22)
(-0.00155576 0.000995948 1.175e-19)
(0.00566893 0.00358983 3.39559e-22)
(-0.000747409 0.00045429 -1.78464e-22)
(0.0028105 0.00174723 6.21324e-22)
(0.0275833 0.0010473 -5.74301e-24)
(0.0273257 0.000479851 9.21467e-23)
(0.0275274 0.00158084 6.12737e-24)
(0.0269808 -0.00011024 -8.94928e-22)
(0.0274575 0.00219597 -6.1882e-24)
(0.0265024 -0.000733672 -3.75531e-21)
(0.0273479 0.00293786 0)
(0.0258262 -0.00138883 -1.52308e-20)
(0.0271302 0.00382257 3.25694e-21)
(0.0248391 -0.0020632 -8.06705e-21)
(0.0267367 0.00487953 -1.16218e-23)
(0.023392 -0.00267389 -1.61796e-20)
(0.0260483 0.00609081 -1.12699e-20)
(0.0212775 -0.00310349 1.57495e-20)
(0.0249557 0.00735175 7.02417e-24)
(0.0180331 -0.00322384 6.83488e-24)
(0.0234371 0.00846985 0)
(0.0133371 -0.00282945 -8.7678e-25)
(0.0216005 0.00925586 -1.32207e-21)
(0.00812974 -0.00192141 -9.06535e-21)
(0.0196336 0.00962269 0)
(0.00398447 -0.000886817 -1.27722e-20)
(0.0177079 0.00959714 -9.2128e-21)
(0.00141641 -6.94265e-05 -3.75545e-21)
(0.015934 0.00926286 3.23236e-20)
(-8.7963e-06 0.000468123 -1.23903e-21)
(0.0143732 0.00872056 -2.45445e-23)
(-0.000817557 0.000807889 9.33995e-22)
(0.0130468 0.00807608 -3.19832e-20)
(-0.00131085 0.00101961 -2.87797e-21)
(0.011907 0.00741994 -4.05594e-20)
(-0.00161942 0.00115072 0)
(0.0108801 0.00678591 0)
(-0.00181119 0.00123019 -7.58699e-21)
(0.00991271 0.00617755 -6.64931e-20)
(-0.0019188 0.00127091 -1.14297e-20)
(0.00895473 0.00557938 8.8611e-20)
(-0.00195202 0.00127386 1.79342e-20)
(0.00795393 0.00496328 -1.23721e-19)
(-0.0018849 0.00121443 -3.19197e-20)
(0.00681537 0.00426819 0)
(-0.00160729 0.00101298 -6.58933e-20)
(0.00530512 0.00332663 0)
(-0.000777545 0.000460798 -1.00843e-22)
(0.00260884 0.00159705 -1.31164e-18)
(0.0277178 0.00107795 0)
(0.0274781 0.000532704 -7.91544e-23)
(0.0276455 0.00159614 0)
(0.02715 -3.48106e-05 -2.42951e-23)
(0.0275528 0.00219336 -5.90026e-24)
(0.0266963 -0.000631426 0)
(0.0274164 0.00290402 7.52389e-22)
(0.0260634 -0.00125609 7.14286e-21)
(0.027177 0.00374313 -3.19837e-21)
(0.0251569 -0.00190049 -6.97282e-21)
(0.0267758 0.00473611 5.65481e-21)
(0.0238536 -0.00249906 7.42372e-21)
(0.0261123 0.00587226 1.03421e-20)
(0.0220006 -0.00294931 -1.44167e-20)
(0.0250862 0.00707304 0)
(0.0192331 -0.00315616 0)
(0.0236609 0.00817381 5.30457e-21)
(0.0150722 -0.0029495 -2.76526e-24)
(0.0219133 0.0089928 1.66623e-21)
(0.0099555 -0.00221955 0)
(0.0200074 0.00942664 2.51387e-24)
(0.0053896 -0.00122418 6.05576e-21)
(0.0181109 0.00947871 5.83029e-22)
(0.00230883 -0.000343687 0)
(0.0163424 0.00921753 -2.84483e-20)
(0.000525559 0.000276118 -4.81998e-24)
(0.0147726 0.00873659 -2.03672e-20)
(-0.000491993 0.000681431 3.41907e-24)
(0.013431 0.00813809 -3.11696e-23)
(-0.00110957 0.000940115 2.75095e-21)
(0.0122811 0.00751434 5.80795e-22)
(-0.00149936 0.0011056 -4.53121e-21)
(0.0112565 0.00690736 4.36998e-20)
(-0.00175045 0.00121302 6.7009e-21)
(0.0103074 0.00632802 5.50098e-20)
(-0.00190922 0.00128066 4.54656e-23)
(0.00939056 0.00576841 -1.37676e-22)
(-0.00199962 0.00131649 -1.34584e-20)
(0.00846925 0.00521234 0)
(-0.00202269 0.00131168 0)
(0.00749235 0.00462895 -2.47203e-22)
(-0.00195128 0.00123841 -3.30801e-23)
(0.00637927 0.00395164 0)
(-0.00166948 0.0010242 -7.2056e-20)
(0.00494114 0.00304144 3.77316e-19)
(-0.000814954 0.000464588 1.02371e-22)
(0.00241654 0.00144084 6.80445e-19)
(0.0278505 0.00110324 -4.8403e-24)
(0.0276279 0.000582638 -8.28146e-23)
(0.0277617 0.00160438 5.13684e-24)
(0.0273169 3.89097e-05 6.97838e-22)
(0.0276479 0.00218172 0)
(0.0268869 -0.00053127 2.46494e-23)
(0.0274875 0.00286091 -1.40892e-21)
(0.0262931 -0.00112676 -6.17077e-21)
(0.0272292 0.00365587 2.71032e-21)
(0.0254567 -0.00174196 6.59155e-21)
(0.0268217 0.00458846 -5.57917e-21)
(0.0242754 -0.00232585 -1.6035e-23)
(0.0261798 0.00565357 -4.91889e-21)
(0.0226345 -0.00278864 -1.97556e-23)
(0.0252135 0.00679352 0)
(0.0202664 -0.00305401 0)
(0.0238763 0.00787012 -1.90012e-22)
(0.0166662 -0.00299932 0)
(0.0222176 0.00871308 -1.60965e-21)
(0.0118363 -0.00246443 4.76346e-24)
(0.0203767 0.00920733 -2.31938e-21)
(0.00699884 -0.00156041 -8.41138e-24)
(0.0185131 0.00933441 7.579e-21)
(0.00340303 -0.000647813 9.3181e-24)
(0.0167515 0.00914617 1.29557e-20)
(0.00120113 4.95118e-05 0)
(0.0151712 0.00872722 1.87412e-20)
(-7.60017e-05 0.000526087 0)
(0.0138104 0.00817504 2.41834e-20)
(-0.000847852 0.000837882 -3.31361e-24)
(0.012643 0.00758265 3.12784e-20)
(-0.00133514 0.00104163 8.53296e-21)
(0.0116104 0.00699893 -3.83116e-20)
(-0.00165307 0.00117828 -1.31473e-23)
(0.0106648 0.00644105 0)
(-0.00186301 0.00127093 8.16435e-21)
(0.00976586 0.00590645 -5.68454e-20)
(-0.00200006 0.00133209 0)
(0.00888303 0.00538487 1.37505e-22)
(-0.00207879 0.00135982 0)
(0.00798057 0.00485668 0)
(-0.00209829 0.0013411 -4.72237e-23)
(0.00701809 0.00428373 1.25233e-22)
(-0.00202713 0.00125318 3.93661e-20)
(0.005949 0.00361483 -2.03331e-19)
(-0.00174107 0.00102617 0)
(0.00459771 0.0027471 0)
(-0.000858188 0.000463661 0)
(0.00223512 0.0012826 7.04318e-19)
(0.0279827 0.00112282 0)
(0.0277759 0.000628761 9.62872e-23)
(0.0278775 0.00160557 0)
(0.027482 0.00010999 -6.95856e-22)
(0.0277442 0.00216137 6.11235e-23)
(0.0270751 -0.000433875 -2.7218e-21)
(0.0275626 0.00280913 5.42604e-23)
(0.0265172 -0.00100128 3.38807e-22)
(0.0272877 0.00356147 -2.69217e-21)
(0.0257423 -0.00158823 4.55533e-23)
(0.026875 0.00443714 -4.68523e-21)
(0.0246656 -0.00215536 0)
(0.0262523 0.0054351 0)
(0.0231981 -0.00262508 -1.27883e-23)
(0.0253395 0.00651441 -1.56989e-23)
(0.0211536 -0.00292979 5.11079e-24)
(0.0240847 0.007561 -4.89571e-21)
(0.0180855 -0.00298855 0)
(0.022514 0.00841897 1.75095e-21)
(0.0136947 -0.002643 1.12667e-23)
(0.0207415 0.00896654 2.23575e-21)
(0.00877793 -0.00187583 0)
(0.0189158 0.00916541 0)
(0.0047148 -0.00097237 8.70832e-24)
(0.0171639 0.00904989 -1.1054e-20)
(0.00204519 -0.000211116 0)
(0.0155733 0.00869404 0)
(0.000451342 0.000339265 3.29233e-24)
(0.0141909 0.00818972 -6.05066e-22)
(-0.000512854 0.000710523 0)
(0.0130014 0.00762916 0)
(-0.00111974 0.000957592 -4.11257e-21)
(0.0119535 0.00706735 3.33133e-20)
(-0.00151666 0.00112633 0)
(0.0110017 0.00652709 -8.06645e-23)
(-0.00178289 0.00124451 7.35264e-21)
(0.0101073 0.00601047 4.89281e-20)
(-0.00196493 0.00132847 -1.98996e-23)
(0.00924199 0.00551096 0)
(-0.00208732 0.00138067 0)
(0.00837644 0.00501456 -7.33739e-20)
(-0.00216137 0.00139407 3.52715e-23)
(0.00748411 0.00449401 -9.56011e-20)
(-0.0021821 0.0013595 4.75507e-23)
(0.00655358 0.00392104 8.12535e-22)
(-0.00211145 0.00125487 -7.98191e-23)
(0.00554449 0.00326894 -2.08212e-19)
(-0.00181924 0.00101476 0)
(0.00427722 0.00244984 -3.91423e-22)
(-0.000906229 0.000455465 1.29563e-22)
(0.00206807 0.00112564 1.45595e-18)
(0.0281155 0.00113644 0)
(0.0279232 0.000670381 0)
(0.0279942 0.00159985 0)
(0.0276462 0.000177567 -6.01501e-22)
(0.0278428 0.00213287 -1.09689e-22)
(0.0272616 -0.000340026 2.66214e-21)
(0.0276425 0.00274941 6.2427e-22)
(0.026737 -0.000880185 5.43692e-21)
(0.0273534 0.00346057 0)
(0.0260167 -0.00143977 0)
(0.0269365 0.00428263 4.10674e-22)
(0.0250303 -0.00198856 -2.25082e-23)
(0.0263308 0.00521744 0)
(0.023707 -0.00246068 0)
(0.0254656 0.0062369 5.21461e-24)
(0.0219199 -0.00279272 1.0036e-20)
(0.024287 0.00724868 4.33152e-21)
(0.0193187 -0.00293089 8.71212e-21)
(0.0228028 0.00811289 -1.71657e-21)
(0.0154561 -0.00275044 6.722e-21)
(0.0211019 0.00870597 3.28139e-24)
(0.0106689 -0.0021503 -1.21288e-23)
(0.0193189 0.00897264 7.17757e-24)
(0.00624489 -0.00130317 2.74346e-21)
(0.0175809 0.00892929 2.04231e-20)
(0.00308404 -0.000501997 -9.17637e-22)
(0.0159818 0.00863789 2.61267e-23)
(0.00111483 0.000119245 0)
(0.0145771 0.00818348 -2.02123e-20)
(-8.7967e-05 0.000555323 -1.60524e-23)
(0.0133621 0.00765647 0)
(-0.000843112 0.000851444 0)
(0.0122939 0.0071167 -3.04537e-20)
(-0.00133588 0.00105629 -2.35708e-23)
(0.0113292 0.00659244 1.4e-22)
(-0.00166758 0.00120205 -6.92155e-21)
(0.0104306 0.00609007 -4.21933e-20)
(-0.00189787 0.00130876 -8.55904e-21)
(0.0095705 0.00560608 -5.03126e-20)
(-0.00206085 0.0013824 -2.46315e-24)
(0.00872271 0.00513008 6.13144e-20)
(-0.00217617 0.00141955 -2.60692e-23)
(0.00786607 0.00464056 7.5967e-20)
(-0.00225077 0.00141602 1.89407e-20)
(0.00699978 0.0041167 9.85357e-20)
(-0.00227342 0.0013625 -2.76002e-20)
(0.00611761 0.00355 1.3654e-19)
(-0.00220131 0.00123867 0)
(0.00516968 0.00292072 0)
(-0.00190185 0.00098529 0)
(0.00398435 0.00215504 -4.10701e-19)
(-0.000959785 0.000438845 -1.31125e-22)
(0.0019151 0.000971171 -7.48114e-19)
(0.0282498 0.00114403 0)
(0.0280705 0.000706797 0)
(0.028113 0.00158746 -7.66819e-24)
(0.0278098 0.000240768 5.67041e-22)
(0.0279451 0.00209684 3.42943e-23)
(0.0274468 -0.000250412 0)
(0.0277282 0.00268241 -1.59347e-23)
(0.0269535 -0.000763947 -2.32711e-21)
(0.0274269 0.00335406 0)
(0.0262821 -0.00129698 0)
(0.027007 0.00412559 4.00807e-22)
(0.0253745 -0.00182622 0)
(0.0264163 0.00500105 0)
(0.024173 -0.00229683 -9.56175e-21)
(0.0255932 0.00596213 -9.545e-24)
(0.0225906 -0.00264862 -9.25654e-21)
(0.0244847 0.00693514 -4.29809e-21)
(0.020376 -0.00284077 8.51387e-23)
(0.023084 0.00779755 -5.82289e-26)
(0.0170621 -0.00279082 -1.25186e-20)
(0.0214571 0.00842771 1.33962e-21)
(0.012595 -0.00236691 0)
(0.0197221 0.0087572 -3.3645e-24)
(0.00797247 -0.00162204 -2.60859e-21)
(0.0180029 0.0087848 -5.24519e-22)
(0.00433811 -0.000815151 8.94669e-22)
(0.0163984 0.00855913 1.34395e-20)
(0.00194142 -0.000133726 6.75639e-24)
(0.0149719 0.00815705 0)
(0.00044739 0.000369778 0)
(0.0137297 0.00766602 -1.35126e-22)
(-0.000492033 0.000720754 1.2457e-23)
(0.0126373 0.00714945 2.72283e-20)
(-0.00110276 0.000966513 -5.22051e-21)
(0.0116549 0.00664088 0)
(-0.00151308 0.001143 2.3195e-23)
(0.0107459 0.00615098 7.57054e-20)
(-0.00179854 0.00127386 8.04875e-21)
(0.00988311 0.00567906 4.45171e-20)
(-0.00200378 0.00136841 -1.79402e-23)
(0.00904186 0.00521748 -5.22176e-20)
(-0.00215606 0.00142602 -4.7288e-23)
(0.00820328 0.00474853 -1.21411e-22)
(-0.00227014 0.00144512 -1.55315e-20)
(0.00736961 0.00425464 -7.78661e-20)
(-0.00234682 0.00142096 2.06844e-20)
(0.00654549 0.00373174 -1.00598e-19)
(-0.00236953 0.00134511 0)
(0.0057151 0.00317707 0)
(-0.00229411 0.00119961 -4.81671e-20)
(0.00482901 0.00257583 0)
(-0.00198943 0.00093638 0)
(0.00372142 0.00186622 5.43114e-22)
(-0.00101925 0.000415161 -7.39462e-20)
(0.00178437 0.000824835 7.51373e-22)
(0.0283864 0.00114566 -6.53079e-24)
(0.0282185 0.000737603 -2.80283e-23)
(0.028235 0.00156875 -6.87414e-24)
(0.0279732 0.000298903 0)
(0.028052 0.00205411 -6.21606e-24)
(0.0276311 -0.000165775 1.71545e-23)
(0.0278207 0.00260913 4.56905e-22)
(0.0271671 -0.000653081 2.24341e-21)
(0.0275091 0.00324266 1.58011e-23)
(0.0265402 -0.00116024 -1.64321e-23)
(0.0270871 0.00396666 3.84721e-21)
(0.0257017 -0.0016691 1.6167e-23)
(0.0265098 0.00478643 -3.07189e-21)
(0.0246045 -0.0021347 9.00877e-21)
(0.0257239 0.00569088 -2.54213e-21)
(0.0231871 -0.0025009 0)
(0.0246793 0.00662226 9.34174e-24)
(0.0212803 -0.00273035 -7.43676e-21)
(0.0233584 0.00747535 1.56289e-21)
(0.0184785 -0.00277518 5.80558e-21)
(0.0218069 0.00813406 -1.31368e-21)
(0.0144715 -0.00251559 -3.9753e-21)
(0.0201249 0.00852041 8.87958e-24)
(0.0098509 -0.00190894 0)
(0.0184301 0.00861685 -8.7382e-21)
(0.00581556 -0.00113792 0)
(0.0168241 0.00845779 -1.29005e-20)
(0.00295796 -0.000416417 0)
(0.0153776 0.00811053 -6.98274e-23)
(0.00111757 0.000152201 -2.58991e-21)
(0.0141074 0.00765832 0)
(-4.95549e-05 0.000562853 0)
(0.0129881 0.00716699 -2.55133e-20)
(-0.000806466 0.000854824 5.191e-21)
(0.011984 0.00667481 0)
(-0.00131294 0.00106605 -2.25172e-23)
(0.0110601 0.00619677 -4.15146e-22)
(-0.00166396 0.00122353 -7.63617e-21)
(0.010189 0.00573514 0)
(-0.00191656 0.00133989 -9.04554e-21)
(0.00934708 0.00528466 4.62334e-20)
(-0.00210612 0.0014171 0)
(0.00851625 0.00483072 0)
(-0.00225435 0.00145542 2.48883e-23)
(0.00769896 0.00435744 6.54117e-20)
(-0.0023697 0.00145241 3.1555e-23)
(0.00690362 0.00386161 1.60953e-19)
(-0.00244697 0.00140386 -4.4806e-23)
(0.00612664 0.00334502 0)
(-0.00246776 0.0013024 9.3835e-23)
(0.00535048 0.00280793 0)
(-0.00239005 0.00113618 1.01738e-22)
(0.0045257 0.00223848 2.2349e-19)
(-0.00208076 0.000871611 4.84922e-20)
(0.00349791 0.00159194 -8.37653e-22)
(-0.00108026 0.000383955 0)
(0.00167875 0.000692415 7.85894e-19)
(0.0285259 0.00114157 0)
(0.0283677 0.000762558 2.15238e-23)
(0.0283609 0.00154422 6.11023e-24)
(0.0281368 0.000351375 0)
(0.0281644 0.00200538 -2.7653e-24)
(0.0278146 -8.67523e-05 -2.94561e-23)
(0.0279206 0.00253052 -5.17413e-23)
(0.0273783 -0.000548131 -1.92408e-21)
(0.0276004 0.00312744 -1.61006e-21)
(0.0267919 -0.00102998 3.29549e-23)
(0.0271772 0.00380656 0)
(0.0260149 -0.00151781 -3.93544e-21)
(0.0266121 0.00457404 3.39978e-22)
(0.0250082 -0.00197525 -1.70686e-23)
(0.025859 0.00542403 2.55475e-21)
(0.0237264 -0.00235145 -7.64205e-21)
(0.0248719 0.00631194 -3.26862e-21)
(0.02206 -0.00260823 0)
(0.0236265 0.00714895 -1.55268e-21)
(0.0196986 -0.00271807 5.57883e-21)