/*--------------------------------*- C++ -*----------------------------------*\
  =========                 |
  \\      /  F ield         | OpenFOAM: The Open Source CFD Toolbox
   \\    /   O peration     | Website:  https://openfoam.org
    \\  /    A nd           | Version:  7
     \\/     M anipulation  |
\*---------------------------------------------------------------------------*/
FoamFile
{
    version     2.0;
    format      ascii;
    class       volScalarField;
    location    "0";
    object      epsilon;
}
// * * * * * * * * * * * * * * * * * * * * * * * * * * * * * * * * * * * * * //

dimensions      [0 2 -3 0 0 0 0];

internalField   nonuniform List<scalar> 
10981
(
1.87796e-06
1.88711e-06
1.8812e-06
1.86859e-06
1.89611e-06
1.88972e-06
1.47765e-06
1.87104e-06
1.85886e-06
1.89956e-06
1.89581e-06
1.48691e-06
1.14991e-06
1.46677e-06
1.85906e-06
1.84407e-06
1.89708e-06
1.89775e-06
1.49333e-06
1.15961e-06
9.02968e-07
1.13902e-06
1.45429e-06
1.8434e-06
1.82361e-06
1.88602e-06
1.8953e-06
1.49569e-06
1.16677e-06
9.12333e-07
7.15339e-07
8.92712e-07
1.12705e-06
1.43909e-06
1.82385e-06
1.79582e-06
1.86685e-06
1.88854e-06
1.49322e-06
1.17024e-06
9.19601e-07
7.23897e-07
5.7107e-07
7.06176e-07
8.81726e-07
1.11318e-06
1.42021e-06
1.80009e-06
1.76214e-06
1.84217e-06
1.87735e-06
1.48578e-06
1.16914e-06
9.23727e-07
7.30683e-07
5.78519e-07
4.59388e-07
5.63269e-07
6.96571e-07
8.69465e-07
1.09608e-06
1.39723e-06
1.77273e-06
1.72462e-06
1.81481e-06
1.8624e-06
1.47435e-06
1.16352e-06
9.23741e-07
7.34751e-07
5.8453e-07
4.65526e-07
3.72566e-07
4.53038e-07
5.55282e-07
6.86153e-07
8.54701e-07
1.07539e-06
1.37003e-06
1.74239e-06
1.68466e-06
1.78444e-06
1.84445e-06
1.46015e-06
1.15456e-06
9.19927e-07
7.35412e-07
5.88193e-07
4.70518e-07
3.77418e-07
3.04897e-07
3.67617e-07
4.46667e-07
5.46866e-07
6.73797e-07
8.36978e-07
1.05108e-06
1.33947e-06
1.70923e-06
1.64281e-06
1.75433e-06
1.82405e-06
1.44357e-06
1.14329e-06
9.13208e-07
7.32749e-07
5.88924e-07
4.73557e-07
3.81308e-07
3.08557e-07
2.51989e-07
3.01202e-07
3.62743e-07
4.40083e-07
5.36944e-07
6.59174e-07
8.16223e-07
1.02392e-06
1.30697e-06
1.67391e-06
1.60164e-06
1.72176e-06
1.80174e-06
1.42561e-06
1.13025e-06
9.04672e-07
7.27724e-07
5.86903e-07
4.74091e-07
3.83605e-07
3.11447e-07
2.54636e-07
2.10423e-07
2.49349e-07
2.97637e-07
3.57797e-07
4.32397e-07
5.25124e-07
6.42e-07
7.93219e-07
9.95395e-07
1.2732e-06
1.6376e-06
1.55931e-06
1.69212e-06
1.77796e-06
1.40624e-06
1.11631e-06
8.94689e-07
7.21227e-07
5.82942e-07
4.72339e-07
3.83827e-07
3.12992e-07
2.5665e-07
2.12241e-07
1.77544e-07
2.08626e-07
2.46852e-07
2.9407e-07
3.52009e-07
4.2317e-07
5.11344e-07
6.23127e-07
7.69263e-07
9.66288e-07
1.2389e-06
1.59969e-06
1.51926e-06
1.66265e-06
1.75404e-06
1.38629e-06
1.10148e-06
8.84086e-07
7.1359e-07
5.77797e-07
4.69025e-07
3.82121e-07
3.12832e-07
2.57544e-07
2.13539e-07
1.78725e-07
1.51287e-07
1.76391e-07
2.06968e-07
2.44391e-07
2.89818e-07
3.4499e-07
4.12294e-07
4.96109e-07
6.03507e-07
7.45083e-07
9.3712e-07
1.20458e-06
1.56203e-06
1.48112e-06
1.63413e-06
1.72937e-06
1.36623e-06
1.08627e-06
8.72887e-07
7.05434e-07
5.71867e-07
4.64749e-07
3.79154e-07
3.11076e-07
2.5702e-07
2.13914e-07
1.79461e-07
1.51997e-07
1.30081e-07
1.50608e-07
1.75358e-07
2.0535e-07
2.41374e-07
2.84564e-07
3.36564e-07
4.0025e-07
4.80375e-07
5.83959e-07
7.21177e-07
9.08601e-07
1.17063e-06
1.52486e-06
1.44391e-06
1.607e-06
1.70489e-06
1.34586e-06
1.07104e-06
8.61539e-07
6.9697e-07
5.6543e-07
4.59883e-07
3.75423e-07
3.08303e-07
2.55192e-07
2.13106e-07
1.79438e-07
1.52322e-07
1.30448e-07
1.12729e-07
1.29736e-07
1.50029e-07
1.74366e-07
2.03276e-07
2.37491e-07
2.7814e-07
3.27156e-07
3.87822e-07
4.64844e-07
5.6475e-07
6.98058e-07
8.80655e-07
1.13784e-06
1.48777e-06
1.4087e-06
1.57841e-06
1.67984e-06
1.32542e-06
1.05568e-06
8.50241e-07
6.88407e-07
5.58881e-07
4.54681e-07
3.71245e-07
3.04931e-07
2.52543e-07
2.11223e-07
1.78428e-07
1.52015e-07
1.30487e-07
1.12862e-07
9.83454e-08
1.12609e-07
1.29473e-07
1.49485e-07
1.72985e-07
2.00454e-07
2.32627e-07
2.70857e-07
3.1744e-07
3.75565e-07
4.49684e-07
5.46404e-07
6.75778e-07
8.53895e-07
1.10576e-06
1.45141e-06
1.37404e-06
1.55046e-06
1.65351e-06
1.3049e-06
1.04035e-06
8.38957e-07
6.80014e-07
5.52312e-07
4.49411e-07
3.66861e-07
3.01219e-07
2.49417e-07
2.08675e-07
1.76526e-07
1.50875e-07
1.29987e-07
1.12715e-07
9.83306e-08
8.62845e-08
9.83674e-08
1.12554e-07
1.29232e-07
1.48603e-07
1.7096e-07
1.96784e-07
2.27019e-07
2.63313e-07
3.07871e-07
3.6377e-07
4.35262e-07
5.28875e-07
6.54614e-07
8.28221e-07
1.07461e-06
1.41515e-06
1.33959e-06
1.52419e-06
1.62731e-06
1.28405e-06
1.02508e-06
8.27743e-07
6.71725e-07
5.45881e-07
4.44187e-07
3.62422e-07
2.97373e-07
2.46057e-07
2.05757e-07
1.74084e-07
1.48998e-07
1.28788e-07
1.12098e-07
9.80672e-08
8.6181e-08
7.60764e-08
8.63874e-08
9.8442e-08
1.12511e-07
1.28694e-07
1.47158e-07
1.68189e-07
1.92466e-07
2.2117e-07
2.55876e-07
2.98696e-07
3.52535e-07
4.21673e-07
5.1242e-07
6.34604e-07
8.03626e-07
1.04422e-06
1.37878e-06
1.30762e-06
1.49683e-06
1.60096e-06
1.26322e-06
1.00967e-06
8.1659e-07
6.63484e-07
5.39643e-07
4.39096e-07
3.58111e-07
2.93529e-07
2.42597e-07
2.02656e-07
1.71361e-07
1.4668e-07
1.26968e-07
1.10888e-07
9.73988e-08
8.58619e-08
7.59329e-08
6.73963e-08
7.62158e-08
8.65318e-08
9.85228e-08
1.12207e-07
1.27666e-07
1.45055e-07
1.64846e-07
1.87921e-07
2.15398e-07
2.48751e-07
2.90015e-07
3.42064e-07
4.08963e-07
4.97022e-07
6.15641e-07
7.80027e-07
1.01491e-06
1.34385e-06
1.27619e-06
1.47137e-06
1.57445e-06
1.24238e-06
9.94313e-07
8.05429e-07
6.55397e-07
5.33502e-07
4.34235e-07
3.53942e-07
2.89793e-07
2.39175e-07
1.99519e-07
1.68501e-07
1.44135e-07
1.24792e-07
1.09159e-07
9.62228e-08
8.51849e-08
7.55968e-08
6.72427e-08
6.00151e-08
6.75422e-08
7.63876e-08
8.66723e-08
9.83632e-08
1.1146e-07
1.26044e-07
1.42436e-07
1.61285e-07
1.83406e-07
2.09863e-07
2.4206e-07
2.81963e-07
3.32333e-07
3.97203e-07
4.8259e-07
5.97702e-07
7.57622e-07
9.86766e-07
1.30967e-06
1.2463e-06
1.44625e-06
1.5485e-06
1.22156e-06
9.78884e-07
7.94288e-07
6.47314e-07
5.27541e-07
4.2951e-07
3.49968e-07
2.86244e-07
2.35876e-07
1.96424e-07
1.65631e-07
1.41507e-07
1.22435e-07
1.07136e-07
9.46052e-08
8.40735e-08
7.49509e-08
6.69197e-08
5.98743e-08
5.3773e-08
6.01474e-08
6.77135e-08
7.65532e-08
8.65987e-08
9.78075e-08
1.10187e-07
1.2396e-07
1.39603e-07
1.5773e-07
1.79084e-07
2.04669e-07
2.35842e-07
2.74544e-07
3.23377e-07
3.86311e-07
4.69101e-07
5.80834e-07
7.36318e-07
9.59685e-07
1.27646e-06
1.21811e-06
1.42132e-06
1.5225e-06
1.20099e-06
9.63544e-07
7.83187e-07
6.39296e-07
5.21633e-07
4.2494e-07
3.46166e-07
2.82869e-07
2.32737e-07
1.93456e-07
1.6281e-07
1.38884e-07
1.20028e-07
1.04974e-07
9.27445e-08
8.25875e-08
7.39238e-08
6.6327e-08
5.95829e-08
5.36569e-08
4.85564e-08
5.38804e-08
6.02991e-08
6.78744e-08
7.6524e-08
8.61675e-08
9.67759e-08
1.08487e-07
1.21668e-07
1.36759e-07
1.54303e-07
1.75023e-07
1.99872e-07
2.3017e-07
2.67736e-07
3.15173e-07
3.76188e-07
4.56495e-07
5.64929e-07
7.15988e-07
9.33794e-07
1.24472e-06
1.19074e-06
1.39848e-06
1.49696e-06
1.18063e-06
9.48398e-07
7.72075e-07
6.31312e-07
5.15772e-07
4.20474e-07
3.42521e-07
2.79674e-07
2.29773e-07
1.90644e-07
1.60119e-07
1.36314e-07
1.17631e-07
1.02779e-07
9.07755e-08
8.0896e-08
7.25814e-08
6.54053e-08
5.90586e-08
5.34114e-08
4.8471e-08
4.42753e-08
4.86334e-08
5.4003e-08
6.04402e-08
6.78599e-08
7.61693e-08
8.53065e-08
9.53541e-08
1.06592e-07
1.19339e-07
1.34001e-07
1.51086e-07
1.71278e-07
1.95492e-07
2.25002e-07
2.61555e-07
3.076e-07
3.6685e-07
4.44742e-07
5.49995e-07
6.96805e-07
9.09065e-07
1.21392e-06
1.16538e-06
1.37513e-06
1.47212e-06
1.16077e-06
9.33412e-07
7.61129e-07
6.2334e-07
5.09994e-07
4.16097e-07
3.38996e-07
2.76614e-07
2.26977e-07
1.87986e-07
1.57571e-07
1.33865e-07
1.15301e-07
1.00605e-07
8.87916e-08
7.91244e-08
7.10687e-08
6.42139e-08
5.82532e-08
5.29644e-08
4.82764e-08
4.42226e-08
4.08542e-08
4.43202e-08
4.87218e-08
5.41142e-08
6.04237e-08
6.75557e-08
7.54258e-08
8.40854e-08
9.37418e-08
1.04639e-07
1.17071e-07
1.31405e-07
1.48115e-07
1.67872e-07
1.91534e-07
2.20323e-07
2.55902e-07
3.00672e-07
3.58166e-07
4.33758e-07
5.35926e-07
6.7869e-07
8.85588e-07
1.18468e-06
1.14109e-06
1.35218e-06
1.44709e-06
1.14141e-06
9.18819e-07
7.50377e-07
6.15521e-07
5.04271e-07
4.11819e-07
3.3556e-07
2.73682e-07
2.24305e-07
1.85468e-07
1.55161e-07
1.31552e-07
1.13081e-07
9.84997e-08
8.68361e-08
7.73476e-08
6.9494e-08
6.28829e-08
5.72199e-08
5.2282e-08
4.79128e-08
4.40803e-08
4.08334e-08
3.82245e-08
4.08678e-08
4.43736e-08
4.87995e-08
5.40879e-08
6.01496e-08
6.68947e-08
7.43538e-08
8.26806e-08
9.20655e-08
1.02727e-07
1.14923e-07
1.28992e-07
1.45416e-07
1.64797e-07
1.87962e-07
2.16077e-07
2.50749e-07
2.94288e-07
3.50132e-07
4.23532e-07
5.22771e-07
6.61623e-07
8.63439e-07
1.15668e-06
1.11776e-06
1.33276e-06
1.42285e-06
1.12249e-06
9.04695e-07
7.39878e-07
6.07917e-07
4.98697e-07
4.07599e-07
3.32231e-07
2.70868e-07
2.21773e-07
1.83082e-07
1.52888e-07
1.29363e-07
1.10981e-07
9.64994e-08
8.4949e-08
7.56077e-08
6.7923e-08
6.1508e-08
5.60732e-08
5.14089e-08
4.7354e-08
4.38008e-08
4.07426e-08
3.82343e-08
3.63255e-08
3.82088e-08
4.08872e-08
4.44167e-08
4.87594e-08
5.38335e-08
5.95548e-08
6.59364e-08
7.31036e-08
8.12052e-08
9.04079e-08
1.00895e-07
1.12915e-07
1.26802e-07
1.42983e-07
1.6203e-07
1.84747e-07
2.12228e-07
2.4603e-07
2.88407e-07
3.42711e-07
4.14018e-07
5.10525e-07
6.45697e-07
8.42651e-07
1.12986e-06
1.09737e-06
1.31436e-06
1.40029e-06
1.10441e-06
8.91016e-07
7.29739e-07
6.00511e-07
4.93262e-07
4.03532e-07
3.28993e-07
2.68137e-07
2.19334e-07
1.80816e-07
1.50726e-07
1.27302e-07
1.09007e-07
9.46102e-08
8.316e-08
7.39342e-08
6.63953e-08
6.01429e-08
5.4896e-08
5.04468e-08
4.66414e-08
4.33647e-08
4.05454e-08
3.81926e-08
3.63637e-08
3.51049e-08
3.6283e-08
3.81965e-08
4.08971e-08
4.43617e-08
4.85198e-08
5.32953e-08
5.86912e-08
6.4813e-08
7.17832e-08
7.97356e-08
8.88051e-08
9.91759e-08
1.11082e-07
1.24824e-07
1.40798e-07
1.59548e-07
1.81838e-07
2.08731e-07
2.41713e-07
2.8301e-07
3.35845e-07
4.05256e-07
4.99196e-07
6.31017e-07
8.23251e-07
1.10536e-06
1.07913e-06
1.29807e-06
1.37895e-06
1.08723e-06
8.77956e-07
7.20065e-07
5.93407e-07
4.88092e-07
3.99651e-07
3.2591e-07
2.65503e-07
2.16993e-07
1.78646e-07
1.48669e-07
1.25342e-07
1.07137e-07
9.28352e-08
8.14765e-08
7.23522e-08
6.49321e-08
5.88227e-08
5.3736e-08
4.94663e-08
4.58618e-08
4.28096e-08
4.02291e-08
3.80745e-08
3.63686e-08
3.51691e-08
3.45188e-08
3.50379e-08
3.62417e-08
3.8176e-08
4.08286e-08
4.41373e-08
4.80346e-08
5.25174e-08
5.76762e-08
6.36202e-08
7.04585e-08
7.83043e-08
8.72916e-08
9.75964e-08
1.09422e-07
1.23042e-07
1.38831e-07
1.57306e-07
1.79206e-07
2.05544e-07
2.37784e-07
2.78057e-07
3.29561e-07
3.97251e-07
4.88813e-07
6.17485e-07
8.05688e-07
1.08313e-06
1.06293e-06
1.28263e-06
1.35862e-06
1.07114e-06
8.65574e-07
7.10903e-07
5.8668e-07
4.83221e-07
3.95957e-07
3.22999e-07
2.63024e-07
2.14743e-07
1.76564e-07
1.46708e-07
1.23474e-07
1.05368e-07
9.11542e-08
7.98956e-08
7.08694e-08
6.35542e-08
5.75665e-08
5.26219e-08
4.8507e-08
4.50735e-08
4.22076e-08
3.98266e-08
3.78739e-08
3.63264e-08
3.5218e-08
3.4607e-08
3.45349e-08
3.44292e-08
3.497e-08
3.61937e-08
3.8096e-08
4.06206e-08
4.37037e-08
4.73401e-08
5.16058e-08
5.65985e-08
6.2416e-08
6.91623e-08
7.69419e-08
8.58897e-08
9.61518e-08
1.07917e-07
1.2144e-07
1.3706e-07
1.55294e-07
1.76828e-07
2.02652e-07
2.34198e-07
2.73577e-07
3.23891e-07
3.89951e-07
4.79421e-07
6.0531e-07
7.89798e-07
1.0627e-06
1.04832e-06
1.27081e-06
1.33969e-06
1.05598e-06
8.5406e-07
7.02285e-07
5.80477e-07
4.78682e-07
3.92595e-07
3.20304e-07
2.60715e-07
2.12627e-07
1.7457e-07
1.4483e-07
1.21693e-07
1.03682e-07
8.95679e-08
7.84029e-08
6.94794e-08
6.22686e-08
5.63896e-08
5.15679e-08
4.75941e-08
4.43109e-08
4.16064e-08
3.93961e-08
3.76192e-08
3.62374e-08
3.52488e-08
3.46982e-08
3.46457e-08
3.51322e-08
3.44244e-08
3.43366e-08
3.48966e-08
3.61045e-08
3.7906e-08
4.02392e-08
4.30928e-08
4.65303e-08
5.06377e-08
5.55083e-08
6.12364e-08
6.79204e-08
7.567e-08
8.45983e-08
9.48395e-08
1.06559e-07
1.19989e-07
1.35468e-07
1.53471e-07
1.74671e-07
2.00032e-07
2.30971e-07
2.69527e-07
3.18785e-07
3.83401e-07
4.71047e-07
5.94405e-07
7.7532e-07
1.04408e-06
1.0367e-06
1.26088e-06
1.32222e-06
1.04191e-06
8.43335e-07
6.94391e-07
5.74751e-07
4.74591e-07
3.89555e-07
3.17889e-07
2.58615e-07
2.10675e-07
1.727e-07
1.4303e-07
1.19988e-07
1.02069e-07
8.80579e-08
7.69958e-08
6.81725e-08
6.10672e-08
5.52978e-08
5.05883e-08
4.67391e-08
4.35928e-08
4.1034e-08
3.89761e-08
3.73547e-08
3.61257e-08
3.52686e-08
3.48001e-08
3.47778e-08
3.52643e-08
3.63001e-08
3.50022e-08
3.43087e-08
3.42401e-08
3.48004e-08
3.5934e-08
3.75786e-08
3.97129e-08
4.23866e-08
4.56737e-08
4.96598e-08
5.4438e-08
6.01018e-08
6.67537e-08
7.44915e-08
8.34158e-08
9.36382e-08
1.05321e-07
1.18675e-07
1.34027e-07
1.51824e-07
1.72725e-07
1.97698e-07
2.28104e-07
2.65945e-07
3.1426e-07
3.77661e-07
4.63639e-07
5.84672e-07
7.62596e-07
1.02751e-06
1.02772e-06
1.25251e-06
1.30565e-06
1.02897e-06
8.33454e-07
6.871e-07
5.69577e-07
4.70984e-07
3.86962e-07
3.15799e-07
2.56776e-07
2.08921e-07
1.70972e-07
1.4134e-07
1.18361e-07
1.0053e-07
8.66181e-08
7.5659e-08
6.6943e-08
5.99431e-08
5.42833e-08
4.96853e-08
4.5951e-08
4.29303e-08
4.05059e-08
3.85881e-08
3.71102e-08
3.60232e-08
3.5297e-08
3.49273e-08
3.49503e-08
3.54364e-08
3.64521e-08
3.80364e-08
3.61518e-08
3.48644e-08
3.41906e-08
3.41388e-08
3.4651e-08
3.5661e-08
3.71377e-08
3.91111e-08
4.16425e-08
4.48097e-08
4.8702e-08
5.3408e-08
5.90319e-08
6.56681e-08
7.34027e-08
8.23213e-08
9.25385e-08
1.04188e-07
1.17483e-07
1.32721e-07
1.50341e-07
1.71002e-07
1.95639e-07
2.25576e-07
2.62829e-07
3.10321e-07
3.7268e-07
4.57171e-07
5.76243e-07
7.51228e-07
1.01278e-06
1.02035e-06
1.24599e-06
1.29027e-06
1.01715e-06
8.24428e-07
6.80523e-07
5.64983e-07
4.67862e-07
3.84786e-07
3.14127e-07
2.55237e-07
2.07401e-07
1.69422e-07
1.39777e-07
1.16826e-07
9.90658e-08
8.52414e-08
7.43899e-08
6.57798e-08
5.88901e-08
5.33386e-08
4.8853e-08
4.5232e-08
4.23283e-08
4.00289e-08
3.82436e-08
3.69013e-08
3.59503e-08
3.53541e-08
3.50953e-08
3.51853e-08
3.56802e-08
3.66639e-08
3.82067e-08
4.03449e-08
3.78712e-08
3.5993e-08
3.47259e-08
3.40859e-08
3.40122e-08
3.44338e-08
3.53062e-08
3.66401e-08
3.84816e-08
4.08968e-08
4.39664e-08
4.77796e-08
5.24356e-08
5.80343e-08
6.46578e-08
7.23882e-08
8.13114e-08
9.15221e-08
1.0315e-07
1.16396e-07
1.31541e-07
1.4903e-07
1.69498e-07
1.93856e-07
2.23427e-07
2.60173e-07
3.07011e-07
3.68419e-07
4.51683e-07
5.68948e-07
7.41451e-07
9.99564e-07
1.01511e-06
1.23923e-06
1.27622e-06
1.00607e-06
8.16206e-07
6.7462e-07
5.61003e-07
4.65277e-07
3.83099e-07
3.12877e-07
2.5408e-07
2.06169e-07
1.68084e-07
1.38367e-07
1.15403e-07
9.76824e-08
8.39336e-08
7.31787e-08
6.46785e-08
5.78983e-08
5.24574e-08
4.8084e-08
4.45763e-08
4.17875e-08
3.96067e-08
3.79466e-08
3.67353e-08
3.5917e-08
3.54513e-08
3.53124e-08
3.54948e-08
3.60251e-08
3.69803e-08
3.84579e-08
4.05319e-08
4.32329e-08
4.01646e-08
3.76922e-08
3.58349e-08
3.46196e-08
3.39842e-08
3.38523e-08
3.4165e-08
3.49129e-08
3.61253e-08
3.78548e-08
4.01711e-08
4.31581e-08
4.69104e-08
5.15282e-08
5.71012e-08
6.3713e-08
7.14441e-08
8.03683e-08
9.05769e-08
1.02196e-07
1.15407e-07
1.30498e-07
1.47894e-07
1.68218e-07
1.92365e-07
2.2164e-07
2.57995e-07
3.04284e-07
3.64943e-07
4.47099e-07
5.62834e-07
7.3314e-07
9.88254e-07
1.00978e-06
1.2322e-06
1.26243e-06
9.95665e-07
8.08639e-07
6.69369e-07
5.57561e-07
4.63231e-07
3.81921e-07
3.12082e-07
2.53333e-07
2.05266e-07
1.66996e-07
1.37138e-07
1.14113e-07
9.63938e-08
8.2703e-08
7.20287e-08
6.36314e-08
5.69618e-08
5.16338e-08
4.73719e-08
4.39766e-08
4.13027e-08
3.9238e-08
3.76984e-08
3.66138e-08
3.59266e-08
3.55927e-08
3.55809e-08
3.58749e-08
3.64801e-08
3.74386e-08
3.88486e-08
4.08216e-08
4.34338e-08
4.67082e-08
4.30403e-08
3.99668e-08
3.75155e-08
3.57288e-08
3.45454e-08
3.3884e-08
3.36709e-08
3.38766e-08
3.45129e-08
3.5618e-08
3.72496e-08
3.94799e-08
4.23979e-08
4.60999e-08
5.068e-08
5.62264e-08
6.2828e-08
7.05549e-08
7.94844e-08
8.96975e-08
1.0132e-07
1.14525e-07
1.29593e-07
1.4694e-07
1.67173e-07
1.91169e-07
2.20254e-07
2.56297e-07
3.02137e-07
3.62154e-07
4.43422e-07
5.57823e-07
7.26164e-07
9.78127e-07
1.00463e-06
1.22496e-06
1.24881e-06
9.85457e-07
8.0135e-07
6.6461e-07
5.54712e-07
4.61693e-07
3.81234e-07
3.11771e-07
2.52999e-07
2.04721e-07
1.66195e-07
1.36125e-07
1.12978e-07
9.52214e-08
8.15552e-08
7.09471e-08
6.26396e-08
5.60775e-08
5.08609e-08
4.67105e-08
4.34281e-08
4.08669e-08
3.89179e-08
3.74965e-08
3.65355e-08
3.59782e-08
3.57778e-08
3.58992e-08
3.6319e-08
3.70288e-08
3.80451e-08
3.94253e-08
4.12885e-08
4.37611e-08
4.69192e-08
5.07754e-08
4.65064e-08
4.28258e-08
3.97732e-08
3.74119e-08
3.56856e-08
3.45085e-08
3.37928e-08
3.34886e-08
3.35913e-08
3.41249e-08
3.51335e-08
3.6677e-08
3.8833e-08
4.16913e-08
4.53437e-08
4.98847e-08
5.54055e-08
6.19907e-08
6.97163e-08
7.86503e-08
8.88836e-08
1.00525e-07
1.13754e-07
1.28835e-07
1.46176e-07
1.66369e-07
1.903e-07
2.19241e-07
2.55062e-07
3.00571e-07
3.60093e-07
4.40598e-07
5.53855e-07
7.20117e-07
9.68551e-07
9.99848e-07
1.21764e-06
1.23529e-06
9.75346e-07
7.94147e-07
6.59881e-07
5.52198e-07
4.60718e-07
3.81073e-07
3.11942e-07
2.53125e-07
2.04569e-07
1.6571e-07
1.3536e-07
1.1202e-07
9.41796e-08
8.05037e-08
6.99419e-08
6.17091e-08
5.52428e-08
5.01341e-08
4.60957e-08
4.29248e-08
4.04758e-08
3.86407e-08
3.73363e-08
3.64969e-08
3.6068e-08
3.60029e-08
3.62625e-08
3.6819e-08
3.76553e-08
3.87703e-08
4.01903e-08
4.1988e-08
4.43055e-08
4.72815e-08
5.09921e-08
5.54357e-08
5.05688e-08
4.62775e-08
4.26166e-08
3.96747e-08
3.74043e-08
3.57171e-08
3.45122e-08
3.37198e-08
3.33197e-08
3.33228e-08
3.37603e-08
3.46798e-08
3.61452e-08
3.82347e-08
4.10347e-08
4.46363e-08
4.91361e-08
5.46286e-08
6.11975e-08
6.89181e-08
7.78679e-08
8.81352e-08
9.98214e-08
1.13104e-07
1.28237e-07
1.45618e-07
1.65828e-07
1.89743e-07
2.18614e-07
2.543e-07
2.99554e-07
3.5868e-07
4.38592e-07
5.50639e-07
7.14492e-07
9.596e-07
9.9543e-07
1.21025e-06
1.22196e-06
9.65298e-07
7.86958e-07
6.5515e-07
5.49634e-07
4.60015e-07
3.81438e-07
3.12653e-07
2.53732e-07
2.04837e-07
1.65561e-07
1.34866e-07
1.11274e-07
9.3289e-08
7.95636e-08
6.90184e-08
6.08454e-08
5.44617e-08
4.94521e-08
4.5522e-08
4.24621e-08
4.01241e-08
3.84015e-08
3.72125e-08
3.64932e-08
3.61914e-08
3.6262e-08
3.66648e-08
3.73666e-08
3.83451e-08
3.95881e-08
4.11015e-08
4.29198e-08
4.51331e-08
4.79044e-08
5.13863e-08
5.56522e-08
6.06851e-08
5.52298e-08
5.03293e-08
4.60554e-08
4.25266e-08
3.97076e-08
3.75112e-08
3.58227e-08
3.4554e-08
3.36708e-08
3.31722e-08
3.30784e-08
3.3425e-08
3.42628e-08
3.56567e-08
3.7682e-08
4.04224e-08
4.39728e-08
4.84294e-08
5.38889e-08
6.044e-08
6.81628e-08
7.71429e-08
8.74585e-08
9.92188e-08
1.12585e-07
1.27812e-07
1.45277e-07
1.65557e-07
1.89503e-07
2.18373e-07
2.53967e-07
2.99075e-07
3.57936e-07
4.37148e-07
5.47695e-07
7.09271e-07
9.51209e-07
9.91389e-07
1.20278e-06
1.20876e-06
9.55319e-07
7.79761e-07
6.50367e-07
5.46978e-07
4.59212e-07
3.82075e-07
3.13857e-07
2.54868e-07
2.05546e-07
1.65787e-07
1.34655e-07
1.10752e-07
9.25719e-08
7.87499e-08
6.81897e-08
6.00525e-08
5.37381e-08
4.88177e-08
4.49878e-08
4.20354e-08
3.9808e-08
3.81963e-08
3.71211e-08
3.65202e-08
3.63437e-08
3.65488e-08
3.70969e-08
3.79521e-08
3.90848e-08
4.04774e-08
4.21211e-08
4.40272e-08
4.62392e-08
4.8864e-08
5.2087e-08
5.60744e-08
6.08942e-08
6.65149e-08
6.04861e-08
5.49838e-08
5.00973e-08
4.59778e-08
4.26069e-08
3.98987e-08
3.77281e-08
3.59878e-08
3.46314e-08
3.36482e-08
3.30496e-08
3.28613e-08
3.31221e-08
3.38839e-08
3.52088e-08
3.71694e-08
3.98508e-08
4.33473e-08
4.77586e-08
5.31837e-08
5.97187e-08
6.74558e-08
7.64795e-08
8.68679e-08
9.87291e-08
1.12214e-07
1.27572e-07
1.45159e-07
1.65551e-07
1.89586e-07
2.18485e-07
2.54092e-07
2.99141e-07
3.57641e-07
4.35927e-07
5.4502e-07
7.04439e-07
9.43432e-07
9.8771e-07
1.19528e-06
1.19572e-06
9.45406e-07
7.72547e-07
6.45504e-07
5.44203e-07
4.58254e-07
3.82597e-07
3.15374e-07
2.56479e-07
2.06755e-07
1.6641e-07
1.34759e-07
1.10475e-07
9.20393e-08
7.80805e-08
6.74656e-08
5.93395e-08
5.30774e-08
4.82328e-08
4.44952e-08
4.16441e-08
3.95231e-08
3.80213e-08
3.70582e-08
3.6574e-08
3.65209e-08
3.68588e-08
3.75514e-08
3.8564e-08
3.98623e-08
4.14201e-08
4.32208e-08
4.526e-08
4.75526e-08
5.01529e-08
5.31821e-08
5.68513e-08
6.13392e-08
6.67092e-08
7.2911e-08
6.63295e-08
6.02389e-08
5.47459e-08
5.0037e-08
4.61129e-08
4.2892e-08
4.02387e-08
3.80277e-08
3.6201e-08
3.47407e-08
3.36518e-08
3.29527e-08
3.26727e-08
3.28521e-08
3.35406e-08
3.47974e-08
3.66941e-08
3.93151e-08
4.27561e-08
4.71193e-08
5.25116e-08
5.90402e-08
6.68041e-08
7.58875e-08
8.6373e-08
9.83629e-08
1.12005e-07
1.27525e-07
1.45273e-07
1.65819e-07
1.89972e-07
2.18982e-07
2.54658e-07
2.99583e-07
3.57517e-07
4.34888e-07
5.42606e-07
6.99992e-07
9.36185e-07
9.84354e-07
1.18784e-06
1.18286e-06
9.35564e-07
7.6532e-07
6.40558e-07
5.413e-07
4.57144e-07
3.82957e-07
3.1679e-07
2.58447e-07
2.08455e-07
1.67491e-07
1.35209e-07
1.10452e-07
9.17079e-08
7.75641e-08
6.68616e-08
5.87155e-08
5.24824e-08
4.77001e-08
4.40442e-08
4.12871e-08
3.92681e-08
3.78733e-08
3.70207e-08
3.66513e-08
3.67197e-08
3.71882e-08
3.80234e-08
3.91925e-08
4.06629e-08
4.24e-08
4.43781e-08
4.65824e-08
4.90104e-08
5.16819e-08
5.46607e-08
5.80847e-08
6.219e-08
6.71704e-08
7.30825e-08
7.98569e-08
7.27468e-08
6.60862e-08
5.99989e-08
5.47082e-08
5.02351e-08
4.65044e-08
4.3369e-08
4.06873e-08
3.83894e-08
3.64527e-08
3.48779e-08
3.36796e-08
3.28801e-08
3.25114e-08
3.26124e-08
3.32292e-08
3.4419e-08
3.62516e-08
3.88117e-08
4.2195e-08
4.6511e-08
5.18783e-08
5.8412e-08
6.62138e-08
7.53789e-08
8.59881e-08
9.81403e-08
1.11968e-07
1.27677e-07
1.45628e-07
1.66345e-07
1.90676e-07
2.19847e-07
2.55553e-07
3.00147e-07
3.57514e-07
4.34022e-07
5.40444e-07
6.95914e-07
9.29487e-07
9.81333e-07
1.18033e-06
1.17021e-06
9.25809e-07
7.5809e-07
6.35534e-07
5.38263e-07
4.55871e-07
3.83152e-07
3.18064e-07
2.60346e-07
2.10508e-07
1.69031e-07
1.36061e-07
1.10719e-07
9.1589e-08
7.7209e-08
6.63808e-08
5.8187e-08
5.19605e-08
4.72223e-08
4.36365e-08
4.09649e-08
3.90419e-08
3.77501e-08
3.70059e-08
3.67497e-08
3.69376e-08
3.75345e-08
3.85097e-08
3.98334e-08
4.14744e-08
4.33993e-08
4.55724e-08
4.79668e-08
5.05683e-08
5.33765e-08
5.64158e-08
5.9759e-08
6.35638e-08
6.8092e-08
7.35531e-08
7.99971e-08
8.73362e-08
7.97214e-08
7.25134e-08
6.5849e-08
5.99896e-08
5.49782e-08
5.07454e-08
4.71338e-08
4.39832e-08
4.12133e-08
3.87972e-08
3.67345e-08
3.50381e-08
3.37275e-08
3.28295e-08
3.23753e-08
3.24002e-08
3.29471e-08
3.40707e-08
3.58392e-08
3.83355e-08
4.16631e-08
4.59391e-08
5.12888e-08
5.78386e-08
6.5699e-08
7.49678e-08
8.57301e-08
9.80677e-08
1.12105e-07
1.28042e-07
1.46206e-07
1.67152e-07
1.91711e-07
2.21006e-07
2.56539e-07
3.00797e-07
3.57633e-07
4.33327e-07
5.38528e-07
6.92196e-07
9.23299e-07
9.78715e-07
1.17291e-06
1.15775e-06
9.16145e-07
7.50859e-07
6.30434e-07
5.35093e-07
4.54433e-07
3.8318e-07
3.19191e-07
2.62139e-07
2.12535e-07
1.70919e-07
1.37325e-07
1.11325e-07
9.1703e-08
7.70252e-08
6.60308e-08
5.7761e-08
5.15159e-08
4.68038e-08
4.32722e-08
4.0677e-08
3.8843e-08
3.76497e-08
3.70112e-08
3.68665e-08
3.71721e-08
3.78953e-08
3.90079e-08
4.04833e-08
4.22925e-08
4.44042e-08
4.6782e-08
4.93878e-08
5.21924e-08
5.51825e-08
5.83586e-08
6.17499e-08
6.54411e-08
6.96074e-08
7.45426e-08
8.04704e-08
8.74363e-08
9.53348e-08
8.72372e-08
7.95034e-08
7.22838e-08
6.58736e-08
6.03401e-08
5.56203e-08
5.15447e-08
4.7932e-08
4.46921e-08
4.17941e-08
3.92379e-08
3.70381e-08
3.52145e-08
3.37922e-08
3.27988e-08
3.22619e-08
3.2213e-08
3.26917e-08
3.37493e-08
3.54529e-08
3.78891e-08
4.11658e-08
4.54083e-08
5.07522e-08
5.73318e-08
6.52701e-08
7.46699e-08
8.56058e-08
9.81564e-08
1.1243e-07
1.28608e-07
1.47034e-07
1.68255e-07
1.93004e-07
2.22233e-07
2.57584e-07
3.01529e-07
3.57867e-07
4.32798e-07
5.36854e-07
6.88831e-07
9.17658e-07
9.76366e-07
1.16548e-06
1.14554e-06
9.06594e-07
7.43642e-07
6.25274e-07
5.31803e-07
4.52837e-07
3.83038e-07
3.20167e-07
2.63819e-07
2.14495e-07
1.72812e-07
1.38909e-07
1.12289e-07
9.20944e-08
7.70324e-08
6.58206e-08
5.74381e-08
5.11525e-08
4.64461e-08
4.29543e-08
4.04226e-08
3.86699e-08
3.75699e-08
3.70338e-08
3.69989e-08
3.74212e-08
3.82687e-08
3.95167e-08
4.11405e-08
4.31143e-08
4.54095e-08
4.79919e-08
5.08204e-08
5.38539e-08
5.70595e-08
6.04252e-08
6.39531e-08
6.76779e-08
7.16946e-08
7.62024e-08
8.15251e-08
8.79054e-08
9.53857e-08
1.03841e-07
9.52798e-08
8.70399e-08
7.92851e-08
7.23468e-08
6.63128e-08
6.11278e-08
5.66063e-08
5.25458e-08
4.88439e-08
4.54652e-08
4.24115e-08
3.96999e-08
3.73543e-08
3.54019e-08
3.38712e-08
3.27859e-08
3.21694e-08
3.2049e-08
3.24603e-08
3.34526e-08
3.50933e-08
3.74732e-08
4.07058e-08
4.49242e-08
5.02751e-08
5.69043e-08
6.49445e-08
7.44936e-08
8.56264e-08
9.84102e-08
1.12943e-07
1.294e-07
1.4813e-07
1.69586e-07
1.94347e-07
2.23503e-07
2.58689e-07
3.02342e-07
3.58214e-07
4.32429e-07
5.35412e-07
6.85811e-07
9.125e-07
9.74376e-07
1.15814e-06
1.13352e-06
8.9716e-07
7.3645e-07
6.20056e-07
5.28394e-07
4.51082e-07
3.82725e-07
3.20988e-07
2.65382e-07
2.16386e-07
1.74678e-07
1.4052e-07
1.13527e-07
9.27847e-08
7.72599e-08
6.57595e-08
5.72259e-08
5.08722e-08
4.61513e-08
4.26833e-08
4.02021e-08
3.85211e-08
3.75079e-08
3.70702e-08
3.71434e-08
3.76818e-08
3.86532e-08
4.0034e-08
4.18033e-08
4.39387e-08
4.64135e-08
4.91957e-08
5.22472e-08
5.55229e-08
5.89754e-08
6.25707e-08
6.62954e-08
7.01549e-08
7.41892e-08
7.85074e-08
8.3333e-08
8.90245e-08
9.5844e-08
1.03833e-07
1.12848e-07
1.03838e-07
9.51077e-08
8.68364e-08
7.93911e-08
7.28823e-08
6.7258e-08
6.23171e-08
5.78304e-08
5.36819e-08
4.98308e-08
4.62795e-08
4.30495e-08
4.01703e-08
3.76755e-08
3.55983e-08
3.39634e-08
3.27898e-08
3.20965e-08
3.19062e-08
3.22516e-08
3.31805e-08
3.47625e-08
3.70918e-08
4.02886e-08
4.44935e-08
4.98683e-08
5.6566e-08
6.47267e-08
7.44483e-08
8.58008e-08
9.88457e-08
1.13657e-07
1.30438e-07
1.49433e-07
1.70956e-07
1.9572e-07
2.24813e-07
2.59851e-07
3.03236e-07
3.58673e-07
4.32223e-07
5.34202e-07
6.8313e-07
9.07843e-07
9.72671e-07
1.15082e-06
1.12178e-06
8.87855e-07
7.29288e-07
6.14795e-07
5.2488e-07
4.49178e-07
3.82245e-07
3.21652e-07
2.66823e-07
2.18202e-07
1.76512e-07
1.42131e-07
1.14807e-07
9.37045e-08
7.77265e-08
6.58722e-08
5.71311e-08
5.0677e-08
4.59204e-08
4.24586e-08
4.00148e-08
3.83944e-08
3.74605e-08
3.71165e-08
3.7295e-08
3.7949e-08
3.9045e-08
4.05585e-08
4.24714e-08
4.47643e-08
4.74144e-08
5.03921e-08
5.36618e-08
5.718e-08
6.08957e-08
6.47561e-08
6.87248e-08
7.27886e-08
7.69564e-08
8.12739e-08
8.58666e-08
9.09857e-08
9.7026e-08
1.04275e-07
1.12772e-07
1.22354e-07
1.12904e-07
1.03695e-07
9.49207e-08
8.69886e-08
8.00297e-08
7.39956e-08
6.8666e-08
6.37825e-08
5.92117e-08
5.49045e-08
5.0863e-08
4.71135e-08
4.36912e-08
4.06398e-08
3.80001e-08
3.58025e-08
3.40676e-08
3.28094e-08
3.20418e-08
3.17836e-08
3.20647e-08
3.29335e-08
3.44618e-08
3.67481e-08
3.99179e-08
4.41262e-08
4.95406e-08
5.63274e-08
6.46255e-08
7.45414e-08
8.61418e-08
9.946e-08
1.14598e-07
1.3166e-07
1.50765e-07
1.72346e-07
1.97121e-07
2.26165e-07
2.61067e-07
3.04204e-07
3.59241e-07
4.32169e-07
5.33218e-07
6.8077e-07
9.03634e-07
9.71305e-07
1.14363e-06
1.11025e-06
8.78685e-07
7.22171e-07
6.09499e-07
5.21268e-07
4.47131e-07
3.816e-07
3.22158e-07
2.68137e-07
2.19935e-07
1.7831e-07
1.43739e-07
1.16102e-07
9.46682e-08
7.83867e-08
6.61761e-08
5.71699e-08
5.05727e-08
4.57533e-08
4.22802e-08
3.98593e-08
3.8288e-08
3.74244e-08
3.71683e-08
3.74489e-08
3.8217e-08
3.9438e-08
4.10864e-08
4.31426e-08
4.55911e-08
4.84118e-08
5.15807e-08
5.50627e-08
5.88184e-08
6.27981e-08
6.69444e-08
7.11985e-08
7.55224e-08
7.99025e-08
8.43516e-08
8.89246e-08
9.3764e-08
9.91498e-08
1.05521e-07
1.13192e-07
1.22201e-07
1.32365e-07
1.22476e-07
1.12793e-07
1.03524e-07
9.51202e-08
8.77355e-08
8.13207e-08
7.56355e-08
7.03893e-08
6.54267e-08
6.06894e-08
5.61756e-08
5.19142e-08
4.79462e-08
4.43258e-08
4.11059e-08
3.83268e-08
3.60145e-08
3.41839e-08
3.28442e-08
3.20046e-08
3.16801e-08
3.18999e-08
3.27132e-08
3.41936e-08
3.6445e-08
3.96018e-08
4.38275e-08
4.92996e-08
5.6192e-08
6.46524e-08
7.47892e-08
8.66436e-08
1.00278e-07
1.15707e-07
1.32906e-07
1.5211e-07
1.73756e-07
1.98551e-07
2.27554e-07
2.62338e-07
3.05251e-07
3.59916e-07
4.32269e-07
5.32449e-07
6.78729e-07
8.99907e-07
9.70209e-07
1.13643e-06
1.09899e-06
8.69662e-07
7.1511e-07
6.04181e-07
5.17568e-07
4.4495e-07
3.80796e-07
3.22506e-07
2.69319e-07
2.21579e-07
1.80062e-07
1.45338e-07
1.17409e-07
9.56525e-08
7.90846e-08
6.6637e-08
5.7362e-08
5.05667e-08
4.56551e-08
4.21482e-08
3.97339e-08
3.81993e-08
3.73959e-08
3.72203e-08
3.7599e-08
3.84794e-08
3.98251e-08
4.16099e-08
4.38131e-08
4.6417e-08
4.94066e-08
5.27608e-08
5.64505e-08
6.04379e-08
6.4676e-08
6.91102e-08
7.36751e-08
7.83074e-08
8.29648e-08
8.76367e-08
9.23387e-08
9.71366e-08
1.02193e-07
1.0782e-07
1.14506e-07
1.22593e-07
1.32124e-07
1.42891e-07
1.32561e-07
1.22401e-07
1.12639e-07
1.03772e-07
9.59796e-08
8.92121e-08
8.32034e-08
7.76296e-08
7.23125e-08
6.71782e-08
6.22193e-08
5.74639e-08
5.29576e-08
4.87642e-08
4.49499e-08
4.15687e-08
3.86563e-08
3.62343e-08
3.4312e-08
3.28937e-08
3.19837e-08
3.15953e-08
3.17574e-08
3.252e-08
3.39605e-08
3.6188e-08
3.93455e-08
4.36035e-08
4.91505e-08
5.61697e-08
6.48164e-08
7.51808e-08
8.73305e-08
1.01253e-07
1.16835e-07
1.34159e-07
1.53466e-07
1.75183e-07
2.00006e-07
2.28981e-07
2.63662e-07
3.06371e-07
3.60697e-07
4.32519e-07
5.31897e-07
6.76997e-07
8.96599e-07
9.69481e-07
1.12931e-06
1.08799e-06
8.60786e-07
7.08108e-07
5.98846e-07
5.13791e-07
4.42643e-07
3.79838e-07
3.22698e-07
2.70368e-07
2.23131e-07
1.81767e-07
1.46923e-07
1.18724e-07
9.66544e-08
7.98023e-08
6.71283e-08
5.76768e-08
5.06841e-08
4.56288e-08
4.20638e-08
3.96382e-08
3.81259e-08
3.73715e-08
3.72674e-08
3.77381e-08
3.87284e-08
4.01984e-08
4.21208e-08
4.44735e-08
4.72376e-08
5.03967e-08
5.39338e-08
5.7826e-08
6.20391e-08
6.653e-08
7.12466e-08
7.61265e-08
8.10984e-08
8.60904e-08
9.10594e-08
9.59954e-08
1.00921e-07
1.05913e-07
1.11153e-07
1.16995e-07
1.23981e-07
1.32485e-07
1.42551e-07
1.53948e-07
1.4317e-07
1.32524e-07
1.22262e-07
1.12934e-07
1.04745e-07
9.76464e-08
9.13443e-08
8.54781e-08
7.98437e-08
7.43501e-08
6.89822e-08
6.37617e-08
5.87367e-08
5.39774e-08