/*--------------------------------*- C++ -*----------------------------------*\
  =========                 |
  \\      /  F ield         | OpenFOAM: The Open Source CFD Toolbox
   \\    /   O peration     | Website:  https://openfoam.org
    \\  /    A nd           | Version:  7
     \\/     M anipulation  |
\*---------------------------------------------------------------------------*/
FoamFile
{
    version     2.0;
    format      ascii;
    class       volScalarField;
    location    "0";
    object      k;
}
// * * * * * * * * * * * * * * * * * * * * * * * * * * * * * * * * * * * * * //

dimensions      [0 2 -2 0 0 0 0];

internalField   nonuniform List<scalar> 
10981
(
1.69027e-06
1.69852e-06
1.21096e-05
1.68181e-06
1.7123e-06
1.21588e-05
1.50221e-05
1.20609e-05
1.67306e-06
1.73256e-06
1.22194e-05
1.50923e-05
1.59861e-05
1.49515e-05
1.20105e-05
1.66537e-06
1.76192e-06
1.22931e-05
1.51678e-05
1.60695e-05
1.62143e-05
1.5902e-05
1.48765e-05
1.19593e-05
1.6633e-06
1.79783e-06
1.2391e-05
1.52513e-05
1.61559e-05
1.63043e-05
1.60972e-05
1.61239e-05
1.58137e-05
1.47975e-05
1.19216e-05
1.66785e-06
1.83762e-06
1.25172e-05
1.53463e-05
1.6246e-05
1.63957e-05
1.61871e-05
1.58114e-05
1.60072e-05
1.60301e-05
1.57195e-05
1.4724e-05
1.19036e-05
1.67975e-06
1.88033e-06
1.26533e-05
1.5451e-05
1.63407e-05
1.6488e-05
1.62773e-05
1.58956e-05
1.54516e-05
1.57277e-05
1.5915e-05
1.5931e-05
1.56258e-05
1.46586e-05
1.19155e-05
1.69752e-06
1.92557e-06
1.27922e-05
1.55556e-05
1.64356e-05
1.658e-05
1.63665e-05
1.59793e-05
1.55255e-05
1.50731e-05
1.53789e-05
1.56433e-05
1.5819e-05
1.583e-05
1.55355e-05
1.46069e-05
1.19484e-05
1.71963e-06
1.96963e-06
1.29312e-05
1.56583e-05
1.65261e-05
1.66674e-05
1.64519e-05
1.60602e-05
1.55986e-05
1.51338e-05
1.47072e-05
1.50141e-05
1.53068e-05
1.5557e-05
1.57209e-05
1.57304e-05
1.54534e-05
1.45695e-05
1.19872e-05
1.74309e-06
2.01588e-06
1.30626e-05
1.57571e-05
1.6612e-05
1.67481e-05
1.65306e-05
1.61354e-05
1.56677e-05
1.51932e-05
1.47534e-05
1.43705e-05
1.46632e-05
1.49569e-05
1.52345e-05
1.5469e-05
1.56237e-05
1.56366e-05
1.53813e-05
1.45365e-05
1.20255e-05
1.7679e-06
2.05803e-06
1.31867e-05
1.58493e-05
1.66923e-05
1.68224e-05
1.6601e-05
1.62024e-05
1.57297e-05
1.52483e-05
1.47982e-05
1.44023e-05
1.40693e-05
1.4341e-05
1.46217e-05
1.49008e-05
1.51614e-05
1.53818e-05
1.55308e-05
1.55508e-05
1.53145e-05
1.45031e-05
1.20638e-05
1.79175e-06
2.09936e-06
1.32991e-05
1.59353e-05
1.67676e-05
1.68906e-05
1.66646e-05
1.62607e-05
1.57828e-05
1.52955e-05
1.48383e-05
1.44328e-05
1.4088e-05
1.38037e-05
1.40528e-05
1.43144e-05
1.45822e-05
1.48446e-05
1.5089e-05
1.52984e-05
1.5445e-05
1.54708e-05
1.52491e-05
1.44707e-05
1.20896e-05
1.81593e-06
2.13965e-06
1.34035e-05
1.60137e-05
1.68367e-05
1.69546e-05
1.67219e-05
1.63125e-05
1.58275e-05
1.53336e-05
1.48705e-05
1.44585e-05
1.41055e-05
1.38116e-05
1.35706e-05
1.37979e-05
1.40392e-05
1.42902e-05
1.45427e-05
1.47892e-05
1.50197e-05
1.5221e-05
1.53653e-05
1.53946e-05
1.51867e-05
1.44337e-05
1.21134e-05
1.83753e-06
2.17685e-06
1.34993e-05
1.60846e-05
1.69004e-05
1.70138e-05
1.67755e-05
1.63584e-05
1.58659e-05
1.53638e-05
1.48937e-05
1.44765e-05
1.41184e-05
1.38181e-05
1.35702e-05
1.33656e-05
1.35729e-05
1.37949e-05
1.40282e-05
1.42662e-05
1.4504e-05
1.47359e-05
1.49556e-05
1.51499e-05
1.52911e-05
1.53231e-05
1.51242e-05
1.43964e-05
1.2128e-05
1.85828e-06
2.21467e-06
1.35916e-05
1.61489e-05
1.69595e-05
1.7069e-05
1.68254e-05
1.64006e-05
1.58992e-05
1.53882e-05
1.49097e-05
1.4486e-05
1.41241e-05
1.38205e-05
1.35683e-05
1.33595e-05
1.31845e-05
1.33732e-05
1.35777e-05
1.37942e-05
1.40172e-05
1.42424e-05
1.44667e-05
1.4687e-05
1.48975e-05
1.50852e-05
1.52226e-05
1.52551e-05
1.50638e-05
1.43559e-05
1.21352e-05
1.87648e-06
2.25213e-06
1.36693e-05
1.62085e-05
1.70138e-05
1.71213e-05
1.68724e-05
1.64402e-05
1.59291e-05
1.54083e-05
1.49206e-05
1.44892e-05
1.4122e-05
1.38162e-05
1.35627e-05
1.33519e-05
1.31754e-05
1.30247e-05
1.31949e-05
1.33829e-05
1.35845e-05
1.37933e-05
1.40058e-05
1.42193e-05
1.44325e-05
1.46434e-05
1.4846e-05
1.50269e-05
1.51599e-05
1.5191e-05
1.5005e-05
1.4311e-05
1.21394e-05
1.89364e-06
2.28605e-06
1.37352e-05
1.62595e-05
1.70638e-05
1.71703e-05
1.69182e-05
1.64781e-05
1.59573e-05
1.54256e-05
1.49279e-05
1.4488e-05
1.41144e-05
1.3805e-05
1.3551e-05
1.33409e-05
1.31648e-05
1.3015e-05
1.28857e-05
1.30353e-05
1.32068e-05
1.33943e-05
1.35906e-05
1.37914e-05
1.39942e-05
1.41981e-05
1.44029e-05
1.4606e-05
1.48012e-05
1.49753e-05
1.51025e-05
1.5131e-05
1.49459e-05
1.42656e-05
1.21316e-05
1.91138e-06
2.32109e-06
1.37975e-05
1.63034e-05
1.71088e-05
1.72166e-05
1.69624e-05
1.65156e-05
1.59845e-05
1.54415e-05
1.49329e-05
1.44839e-05
1.41032e-05
1.37891e-05
1.35334e-05
1.33246e-05
1.3151e-05
1.30038e-05
1.28774e-05
1.27693e-05
1.28945e-05
1.30472e-05
1.322e-05
1.34045e-05
1.35951e-05
1.37884e-05
1.39835e-05
1.41806e-05
1.43787e-05
1.4575e-05
1.47629e-05
1.49299e-05
1.50508e-05
1.50738e-05
1.48888e-05
1.42185e-05
1.21155e-05
1.928e-06
2.35311e-06
1.38511e-05
1.63432e-05
1.71485e-05
1.72601e-05
1.70052e-05
1.6553e-05
1.6012e-05
1.54574e-05
1.49371e-05
1.4478e-05
1.40897e-05
1.37705e-05
1.3512e-05
1.33034e-05
1.31328e-05
1.29898e-05
1.2868e-05
1.27644e-05
1.268e-05
1.27745e-05
1.29041e-05
1.30599e-05
1.32317e-05
1.34126e-05
1.35975e-05
1.3785e-05
1.39752e-05
1.41673e-05
1.436e-05
1.45501e-05
1.47312e-05
1.48907e-05
1.50037e-05
1.50206e-05
1.48334e-05
1.41688e-05
1.21011e-05
1.94342e-06
2.3835e-06
1.39004e-05
1.63757e-05
1.71844e-05
1.73003e-05
1.70467e-05
1.659e-05
1.60403e-05
1.54738e-05
1.49414e-05
1.44717e-05
1.40751e-05
1.37502e-05
1.34887e-05
1.32794e-05
1.31108e-05
1.29725e-05
1.28563e-05
1.27586e-05
1.26799e-05
1.26241e-05
1.26802e-05
1.27802e-05
1.29141e-05
1.30707e-05
1.32406e-05
1.34175e-05
1.35985e-05
1.3783e-05
1.39701e-05
1.41587e-05
1.43469e-05
1.45313e-05
1.47055e-05
1.4857e-05
1.49618e-05
1.49714e-05
1.47795e-05
1.41207e-05
1.20807e-05
1.95927e-06
2.41318e-06
1.39427e-05
1.64035e-05
1.72161e-05
1.73378e-05
1.70865e-05
1.66271e-05
1.60691e-05
1.54915e-05
1.49469e-05
1.44659e-05
1.40605e-05
1.37295e-05
1.34645e-05
1.32542e-05
1.30869e-05
1.29524e-05
1.28424e-05
1.27515e-05
1.26794e-05
1.26298e-05
1.26095e-05
1.26183e-05
1.26805e-05
1.27859e-05
1.29223e-05
1.30783e-05
1.32457e-05
1.34201e-05
1.35997e-05
1.37831e-05
1.39686e-05
1.41546e-05
1.4339e-05
1.45182e-05
1.46854e-05
1.48288e-05
1.49248e-05
1.49258e-05
1.47289e-05
1.40726e-05
1.20611e-05
1.97324e-06
2.43893e-06
1.39768e-05
1.64273e-05
1.72437e-05
1.73723e-05
1.71248e-05
1.66637e-05
1.60989e-05
1.55104e-05
1.49538e-05
1.44614e-05
1.40466e-05
1.3709e-05
1.34404e-05
1.32289e-05
1.30628e-05
1.29316e-05
1.2827e-05
1.27434e-05
1.26788e-05
1.2636e-05
1.26218e-05
1.26447e-05
1.25972e-05
1.26124e-05
1.26807e-05
1.27899e-05
1.29268e-05
1.30813e-05
1.32473e-05
1.34217e-05
1.36019e-05
1.37855e-05
1.39706e-05
1.4155e-05
1.43362e-05
1.45103e-05
1.46709e-05
1.48059e-05
1.48924e-05
1.48846e-05
1.46812e-05
1.40257e-05
1.2039e-05
1.98685e-06
2.46388e-06
1.40049e-05
1.64447e-05
1.72676e-05
1.74038e-05
1.71614e-05
1.66999e-05
1.61292e-05
1.55309e-05
1.49624e-05
1.44584e-05
1.40342e-05
1.36896e-05
1.34169e-05
1.32042e-05
1.30393e-05
1.29113e-05
1.2812e-05
1.27356e-05
1.2679e-05
1.26437e-05
1.26356e-05
1.26638e-05
1.2738e-05
1.26256e-05
1.25844e-05
1.26061e-05
1.26795e-05
1.27902e-05
1.29264e-05
1.30802e-05
1.32471e-05
1.34232e-05
1.36054e-05
1.37906e-05
1.39762e-05
1.41597e-05
1.43381e-05
1.45075e-05
1.46613e-05
1.47879e-05
1.48651e-05
1.48476e-05
1.46369e-05
1.39818e-05
1.20124e-05
1.99974e-06
2.48665e-06
1.40257e-05
1.64567e-05
1.72865e-05
1.74327e-05
1.71962e-05
1.67357e-05
1.616e-05
1.55525e-05
1.49726e-05
1.44573e-05
1.40233e-05
1.36717e-05
1.33948e-05
1.31807e-05
1.30169e-05
1.28924e-05
1.27985e-05
1.27293e-05
1.26812e-05
1.26544e-05
1.2653e-05
1.2686e-05
1.2764e-05
1.28968e-05
1.27121e-05
1.26057e-05
1.25713e-05
1.25992e-05
1.26751e-05
1.27856e-05
1.29215e-05
1.30765e-05
1.32459e-05
1.34253e-05
1.36106e-05
1.37983e-05
1.39852e-05
1.41682e-05
1.43444e-05
1.45093e-05
1.46567e-05
1.47749e-05
1.48424e-05
1.48149e-05
1.45963e-05
1.3938e-05
1.19873e-05
2.01041e-06
2.50321e-06
1.40304e-05
1.64635e-05
1.73019e-05
1.74582e-05
1.72295e-05
1.67707e-05
1.61913e-05
1.55751e-05
1.49843e-05
1.44578e-05
1.40141e-05
1.36554e-05
1.33743e-05
1.31587e-05
1.29961e-05
1.28753e-05
1.27872e-05
1.27255e-05
1.26865e-05
1.26692e-05
1.2676e-05
1.27142e-05
1.27949e-05
1.29295e-05
1.31273e-05
1.28643e-05
1.26852e-05
1.25856e-05
1.25585e-05
1.259e-05
1.26662e-05
1.27764e-05
1.29133e-05
1.30711e-05
1.32444e-05
1.34281e-05
1.36175e-05
1.38085e-05
1.39974e-05
1.41806e-05
1.43547e-05
1.45155e-05
1.46566e-05
1.47667e-05
1.48245e-05
1.4787e-05
1.45587e-05
1.38964e-05
1.19559e-05
2.02125e-06
2.51609e-06
1.4027e-05
1.6461e-05
1.73127e-05
1.74813e-05
1.72612e-05
1.68054e-05
1.62228e-05
1.55989e-05
1.49975e-05
1.44601e-05
1.40066e-05
1.36408e-05
1.33554e-05
1.31385e-05
1.29772e-05
1.28602e-05
1.27782e-05
1.27246e-05
1.26952e-05
1.26886e-05
1.27057e-05
1.27511e-05
1.28346e-05
1.29691e-05
1.31665e-05
1.3435e-05
1.30886e-05
1.28305e-05
1.26581e-05
1.25672e-05
1.25449e-05
1.25774e-05
1.2653e-05
1.27638e-05
1.2903e-05
1.30648e-05
1.32429e-05
1.34318e-05
1.36263e-05
1.38213e-05
1.40125e-05
1.41963e-05
1.43688e-05
1.45258e-05
1.46608e-05
1.4763e-05
1.48113e-05
1.4763e-05
1.45249e-05
1.38555e-05
1.19191e-05
2.0315e-06
2.52448e-06
1.40207e-05
1.6453e-05
1.7318e-05
1.75016e-05
1.72914e-05
1.68397e-05
1.62551e-05
1.56237e-05
1.50122e-05
1.44638e-05
1.40008e-05
1.36278e-05
1.33382e-05
1.312e-05
1.29602e-05
1.28473e-05
1.27717e-05
1.27267e-05
1.27077e-05
1.27127e-05
1.27418e-05
1.27977e-05
1.28867e-05
1.30209e-05
1.32148e-05
1.34802e-05
1.38243e-05
1.33905e-05
1.30484e-05
1.27968e-05
1.26345e-05
1.25499e-05
1.25295e-05
1.25614e-05
1.26368e-05
1.27489e-05
1.28914e-05
1.30578e-05
1.32418e-05
1.34368e-05
1.36369e-05
1.38363e-05
1.40304e-05
1.42151e-05
1.43864e-05
1.45399e-05
1.46694e-05
1.47638e-05
1.48025e-05
1.47435e-05
1.44941e-05
1.3816e-05
1.18852e-05
2.03727e-06
2.5303e-06
1.40009e-05
1.64399e-05
1.73193e-05
1.75186e-05
1.73203e-05
1.68741e-05
1.62881e-05
1.56499e-05
1.50281e-05
1.44692e-05
1.39966e-05
1.36164e-05
1.33226e-05
1.31032e-05
1.29451e-05
1.28365e-05
1.27677e-05
1.27317e-05
1.27237e-05
1.27413e-05
1.27839e-05
1.28528e-05
1.2952e-05
1.30893e-05
1.32791e-05
1.35372e-05
1.38753e-05
1.42994e-05
1.37744e-05
1.33442e-05
1.30084e-05
1.27687e-05
1.26146e-05
1.25333e-05
1.25125e-05
1.25431e-05
1.26184e-05
1.27325e-05
1.28789e-05
1.30509e-05
1.32414e-05
1.34431e-05
1.36492e-05
1.38535e-05
1.40508e-05
1.42368e-05
1.44072e-05
1.45577e-05
1.46819e-05
1.47688e-05
1.47981e-05
1.47281e-05
1.44665e-05
1.37789e-05
1.18498e-05
2.04156e-06
2.5287e-06
1.39735e-05
1.642e-05
1.73165e-05
1.7533e-05
1.7348e-05
1.69087e-05
1.63222e-05
1.56779e-05
1.50461e-05
1.44761e-05
1.3994e-05
1.36066e-05
1.33086e-05
1.30881e-05
1.29317e-05
1.28276e-05
1.27658e-05
1.27392e-05
1.27429e-05
1.27739e-05
1.28312e-05
1.29151e-05
1.3028e-05
1.31747e-05
1.33647e-05
1.36143e-05
1.39408e-05
1.43558e-05
1.48646e-05
1.42444e-05
1.37222e-05
1.32983e-05
1.29764e-05
1.27471e-05
1.25983e-05
1.25172e-05
1.24943e-05
1.25232e-05
1.25987e-05
1.27152e-05
1.2866e-05
1.30442e-05
1.32417e-05
1.34505e-05
1.36631e-05
1.38726e-05
1.40736e-05
1.42612e-05
1.44311e-05
1.4579e-05
1.46982e-05
1.47779e-05
1.47977e-05
1.47162e-05
1.44425e-05
1.37427e-05
1.18108e-05
2.04347e-06
2.52531e-06
1.39358e-05
1.63932e-05
1.73092e-05
1.75446e-05
1.73749e-05
1.69438e-05
1.63581e-05
1.57078e-05
1.50663e-05
1.4485e-05
1.39929e-05
1.35983e-05
1.3296e-05
1.30744e-05
1.292e-05
1.28205e-05
1.2766e-05
1.27491e-05
1.27649e-05
1.28101e-05
1.2883e-05
1.29834e-05
1.31126e-05
1.32735e-05
1.34716e-05
1.37179e-05
1.4031e-05
1.44298e-05
1.49261e-05
1.55239e-05
1.48049e-05
1.41869e-05
1.36709e-05
1.3263e-05
1.29542e-05
1.27328e-05
1.25854e-05
1.25016e-05
1.24754e-05
1.25025e-05
1.25783e-05
1.26974e-05
1.28533e-05
1.30381e-05
1.3243e-05
1.34592e-05
1.36784e-05
1.38935e-05
1.40983e-05
1.4288e-05
1.44579e-05
1.46035e-05
1.47181e-05
1.47907e-05
1.4801e-05
1.47082e-05
1.44209e-05
1.37083e-05
1.17669e-05
2.04384e-06
2.51949e-06
1.38878e-05
1.63606e-05
1.72968e-05
1.75536e-05
1.74006e-05
1.69798e-05
1.6396e-05
1.57405e-05
1.5089e-05
1.44964e-05
1.39938e-05
1.35914e-05
1.32848e-05
1.30621e-05
1.29097e-05
1.2815e-05
1.27679e-05
1.2761e-05
1.27891e-05
1.2849e-05
1.29384e-05
1.30567e-05
1.32041e-05
1.33823e-05
1.35947e-05
1.38475e-05
1.41534e-05
1.45334e-05
1.50084e-05
1.55901e-05
1.62816e-05
1.54598e-05
1.47422e-05
1.41305e-05
1.3633e-05
1.32414e-05
1.29436e-05
1.27253e-05
1.25749e-05
1.24865e-05
1.24563e-05
1.24813e-05
1.25576e-05
1.26798e-05
1.28411e-05
1.30327e-05
1.32451e-05
1.34688e-05
1.3695e-05
1.39159e-05
1.41251e-05
1.43171e-05
1.44874e-05
1.4631e-05
1.47412e-05
1.48069e-05
1.48079e-05
1.47028e-05
1.44016e-05
1.36728e-05
1.17233e-05
2.04224e-06
2.50836e-06
1.3823e-05
1.63201e-05
1.72795e-05
1.75597e-05
1.74259e-05
1.70169e-05
1.64366e-05
1.57762e-05
1.51151e-05
1.45106e-05
1.3997e-05
1.35864e-05
1.32751e-05
1.30513e-05
1.29009e-05
1.28111e-05
1.27716e-05
1.27747e-05
1.28152e-05
1.28899e-05
1.29965e-05
1.31336e-05
1.33008e-05
1.34989e-05
1.37295e-05
1.39965e-05
1.43072e-05
1.46756e-05
1.51259e-05
1.56806e-05
1.6352e-05
1.71413e-05
1.62135e-05
1.53922e-05
1.46809e-05
1.40905e-05
1.3613e-05
1.3236e-05
1.29435e-05
1.27226e-05
1.25664e-05
1.2472e-05
1.24374e-05
1.24603e-05
1.25372e-05
1.26627e-05
1.28294e-05
1.30278e-05
1.32479e-05
1.34794e-05
1.37128e-05
1.39398e-05
1.41535e-05
1.43484e-05
1.45195e-05
1.46614e-05
1.47674e-05
1.48264e-05
1.48175e-05
1.47001e-05
1.43836e-05
1.36391e-05
1.16719e-05
2.03888e-06
2.49531e-06
1.3748e-05
1.62688e-05
1.72565e-05
1.75624e-05
1.74501e-05
1.70552e-05
1.64799e-05
1.58162e-05
1.51449e-05
1.45282e-05
1.4003e-05
1.35835e-05
1.3267e-05
1.30418e-05
1.28935e-05
1.28086e-05
1.27767e-05
1.27899e-05
1.2843e-05
1.29325e-05
1.30564e-05
1.3213e-05
1.34013e-05
1.3621e-05
1.3873e-05
1.41592e-05
1.44837e-05
1.48549e-05
1.52887e-05
1.58124e-05
1.64506e-05
1.72154e-05
1.81061e-05
1.70697e-05
1.61413e-05
1.53265e-05
1.46395e-05
1.40731e-05
1.36143e-05
1.32453e-05
1.29509e-05
1.27234e-05
1.25596e-05
1.24584e-05
1.2419e-05
1.24398e-05
1.25175e-05
1.26463e-05
1.28183e-05
1.30236e-05
1.32514e-05
1.34907e-05
1.37316e-05
1.3965e-05
1.41838e-05
1.43819e-05
1.45539e-05
1.46944e-05
1.47963e-05
1.48483e-05
1.48297e-05
1.46994e-05
1.43672e-05
1.36043e-05
1.16144e-05
2.03292e-06
2.48176e-06
1.36773e-05
1.62112e-05
1.72257e-05
1.75609e-05
1.74731e-05
1.70945e-05
1.65263e-05
1.58603e-05
1.51796e-05
1.455e-05
1.40123e-05
1.35831e-05
1.32608e-05
1.30338e-05
1.28873e-05
1.28075e-05
1.27833e-05
1.28067e-05
1.28723e-05
1.29766e-05
1.31176e-05
1.32937e-05
1.35038e-05
1.37467e-05
1.40223e-05
1.43313e-05
1.4676e-05
1.50608e-05
1.5495e-05
1.59969e-05
1.6597e-05
1.73218e-05
1.81832e-05
1.9178e-05
1.80318e-05
1.69932e-05
1.60712e-05
1.52841e-05
1.46258e-05
1.40828e-05
1.36352e-05
1.32651e-05
1.29635e-05
1.27269e-05
1.25543e-05
1.24458e-05
1.24016e-05
1.24202e-05
1.24986e-05
1.26305e-05
1.28078e-05
1.30199e-05
1.32554e-05
1.35028e-05
1.37513e-05
1.39915e-05
1.42157e-05
1.44173e-05
1.45905e-05
1.47297e-05
1.48276e-05
1.48726e-05
1.48439e-05
1.47003e-05
1.43515e-05
1.35674e-05
1.1554e-05
2.02225e-06
2.46768e-06
1.36038e-05
1.61532e-05
1.7189e-05
1.75532e-05
1.74932e-05
1.7135e-05
1.6576e-05
1.59092e-05
1.52196e-05
1.45767e-05
1.40255e-05
1.35855e-05
1.32566e-05
1.30273e-05
1.28825e-05
1.28076e-05
1.27912e-05
1.28248e-05
1.29028e-05
1.30219e-05
1.31799e-05
1.33753e-05
1.36072e-05
1.38742e-05
1.41751e-05
1.45097e-05
1.48787e-05
1.52845e-05
1.5732e-05
1.62317e-05
1.68039e-05
1.74827e-05
1.82967e-05
1.92569e-05
2.03569e-05
1.91018e-05
1.79516e-05
1.69193e-05
1.60286e-05
1.52751e-05
1.46453e-05
1.41171e-05
1.36695e-05
1.32919e-05
1.298e-05
1.27326e-05
1.25504e-05
1.24344e-05
1.23852e-05
1.24017e-05
1.24806e-05
1.26156e-05
1.2798e-05
1.30168e-05
1.326e-05
1.35155e-05
1.3772e-05
1.40195e-05
1.42494e-05
1.44547e-05
1.46293e-05
1.47672e-05
1.48609e-05
1.48987e-05
1.48597e-05
1.47024e-05
1.43357e-05
1.35294e-05
1.14968e-05
2.01194e-06
2.45331e-06
1.35289e-05
1.60938e-05
1.71515e-05
1.75408e-05
1.75094e-05
1.71744e-05
1.66288e-05
1.5963e-05
1.52652e-05
1.46089e-05
1.40433e-05
1.35914e-05
1.32548e-05
1.30225e-05
1.28789e-05
1.28089e-05
1.28002e-05
1.28441e-05
1.29346e-05
1.30683e-05
1.3243e-05
1.34575e-05
1.37107e-05
1.40018e-05
1.43292e-05
1.46915e-05
1.50881e-05
1.55199e-05
1.59893e-05
1.65016e-05
1.70686e-05
1.7713e-05
1.84721e-05
1.93766e-05
2.04361e-05
2.16406e-05
2.02802e-05
1.90187e-05
1.78743e-05
1.6877e-05
1.60256e-05
1.53064e-05
1.46952e-05
1.41682e-05
1.37129e-05
1.33237e-05
1.29992e-05
1.27402e-05
1.25479e-05
1.24242e-05
1.23701e-05
1.23844e-05
1.24637e-05
1.26015e-05
1.27888e-05
1.30141e-05
1.32652e-05
1.35291e-05
1.37939e-05
1.40489e-05
1.42847e-05
1.44939e-05
1.467e-05
1.48066e-05
1.4896e-05
1.49264e-05
1.48768e-05
1.47052e-05
1.43196e-05
1.34916e-05
1.14404e-05
2.00236e-06
2.43853e-06
1.34529e-05
1.60325e-05
1.71122e-05
1.75266e-05
1.75219e-05
1.72126e-05
1.66831e-05
1.60218e-05
1.5317e-05
1.46471e-05
1.40663e-05
1.36012e-05
1.32556e-05
1.30194e-05
1.28765e-05
1.28111e-05
1.28102e-05
1.28644e-05
1.29674e-05
1.31156e-05
1.33069e-05
1.35401e-05
1.38143e-05
1.41288e-05
1.44825e-05
1.48737e-05
1.53006e-05
1.57621e-05
1.62592e-05
1.67942e-05
1.73729e-05
1.80084e-05
1.87256e-05
1.95657e-05
2.05604e-05
2.17182e-05
2.30244e-05
2.15652e-05
2.01952e-05
1.89387e-05
1.78332e-05
1.68814e-05
1.60704e-05
1.53741e-05
1.47656e-05
1.42305e-05
1.37623e-05
1.33588e-05
1.30206e-05
1.2749e-05
1.25466e-05
1.24155e-05
1.23565e-05
1.23685e-05
1.24479e-05
1.25882e-05
1.27801e-05
1.3012e-05
1.32711e-05
1.35437e-05
1.38172e-05
1.40798e-05
1.43219e-05
1.45351e-05
1.47125e-05
1.48476e-05
1.49325e-05
1.49555e-05
1.48948e-05
1.47075e-05
1.43032e-05
1.34568e-05
1.13879e-05
1.99362e-06
2.42385e-06
1.33769e-05
1.59694e-05
1.70705e-05
1.75103e-05
1.7532e-05
1.72483e-05
1.67387e-05
1.60847e-05
1.53753e-05
1.46919e-05
1.40948e-05
1.36154e-05
1.32595e-05
1.30183e-05
1.28753e-05
1.2814e-05
1.28207e-05
1.28853e-05
1.3001e-05
1.31637e-05
1.33713e-05
1.36229e-05
1.39177e-05
1.42552e-05
1.46346e-05
1.50545e-05
1.55128e-05
1.60072e-05
1.65361e-05
1.71005e-05
1.77024e-05
1.83485e-05
1.90523e-05
1.98421e-05
2.07619e-05
2.18451e-05
2.30979e-05
2.4501e-05
2.29525e-05
2.14798e-05
2.01134e-05
1.88997e-05
1.78462e-05
1.69418e-05
1.61585e-05
1.54665e-05
1.48495e-05
1.43001e-05
1.38156e-05
1.33961e-05
1.30431e-05
1.27591e-05
1.25467e-05
1.24083e-05
1.23444e-05
1.2354e-05
1.24333e-05
1.25758e-05
1.27722e-05
1.30108e-05
1.32779e-05
1.35596e-05
1.38419e-05
1.41126e-05
1.43609e-05
1.4578e-05
1.47567e-05
1.489e-05
1.49704e-05
1.49854e-05
1.49127e-05
1.47101e-05
1.42893e-05
1.34251e-05
1.13389e-05
1.98542e-06
2.40876e-06
1.33005e-05
1.59049e-05
1.70262e-05
1.74912e-05
1.75397e-05
1.72816e-05
1.67936e-05
1.6151e-05
1.54397e-05
1.47439e-05
1.41298e-05
1.36343e-05
1.32668e-05
1.30191e-05
1.28751e-05
1.28174e-05
1.28315e-05
1.29064e-05
1.30348e-05
1.32123e-05
1.34363e-05
1.37058e-05
1.40207e-05
1.43807e-05
1.47851e-05
1.52329e-05
1.57224e-05
1.6251e-05
1.68153e-05
1.74136e-05
1.80464e-05
1.87158e-05
1.94286e-05
2.01997e-05
2.106e-05
2.20568e-05
2.32246e-05
2.4567e-05
2.60604e-05
2.44354e-05
2.28686e-05
2.13975e-05
2.00776e-05
1.8923e-05
1.79245e-05
1.7053e-05
1.62757e-05
1.55749e-05
1.49419e-05
1.43741e-05
1.38712e-05
1.34345e-05
1.30665e-05
1.27703e-05
1.25485e-05
1.24029e-05
1.23341e-05
1.2341e-05
1.24199e-05
1.25644e-05
1.27653e-05
1.30106e-05
1.32861e-05
1.3577e-05
1.38685e-05
1.41473e-05
1.44018e-05
1.46227e-05
1.48023e-05
1.49338e-05
1.50093e-05
1.50156e-05
1.49308e-05
1.47146e-05
1.42781e-05
1.33968e-05
1.12939e-05
1.97816e-06
2.39374e-06
1.32241e-05
1.58393e-05
1.69797e-05
1.7469e-05
1.75443e-05
1.73123e-05
1.68466e-05
1.62191e-05
1.55094e-05
1.48032e-05
1.41718e-05
1.36587e-05
1.32778e-05
1.30221e-05
1.28758e-05
1.2821e-05
1.2842e-05
1.29271e-05
1.30683e-05
1.32606e-05
1.35011e-05
1.37888e-05
1.41234e-05
1.45051e-05
1.49338e-05
1.54088e-05
1.59286e-05
1.64909e-05
1.70922e-05
1.77283e-05
1.8397e-05
1.90982e-05
1.98341e-05
2.06116e-05
2.14474e-05
2.23743e-05
2.34436e-05
2.46902e-05
2.61152e-05
2.769e-05
2.60045e-05
2.43555e-05
2.27875e-05
2.13661e-05
2.01128e-05
1.90213e-05
1.80617e-05
1.71984e-05
1.64118e-05
1.56931e-05
1.50393e-05
1.44504e-05
1.39274e-05
1.34731e-05
1.30907e-05
1.27829e-05
1.2552e-05
1.23994e-05
1.23257e-05
1.23296e-05
1.24078e-05
1.25542e-05
1.27596e-05
1.30117e-05
1.32959e-05
1.35963e-05
1.38972e-05
1.41841e-05
1.44446e-05
1.4669e-05
1.48494e-05
1.4979e-05
1.50489e-05
1.50462e-05
1.49505e-05
1.47212e-05
1.42696e-05
1.33716e-05
1.12524e-05
1.97133e-06
2.37896e-06
1.31479e-05
1.57727e-05
1.69312e-05
1.74438e-05
1.75456e-05
1.734e-05
1.68973e-05
1.6286e-05
1.55832e-05
1.48695e-05
1.42214e-05
1.36893e-05
1.32928e-05
1.30276e-05
1.28776e-05
1.28245e-05
1.28518e-05
1.29469e-05
1.31008e-05
1.3308e-05
1.35653e-05
1.38712e-05
1.42255e-05
1.46286e-05
1.50808e-05
1.5582e-05
1.6131e-05
1.6726e-05
1.73635e-05
1.80393e-05
1.8748e-05
1.94866e-05
2.02546e-05
2.10543e-05
2.18931e-05
2.27891e-05
2.37774e-05
2.49126e-05
2.62306e-05
2.77293e-05
2.93751e-05
2.7648e-05
2.59316e-05
2.42776e-05
2.27623e-05
2.1415e-05
2.02337e-05
1.91875e-05
1.82386e-05
1.73655e-05
1.65593e-05
1.58168e-05
1.51389e-05
1.45267e-05
1.39833e-05
1.35121e-05
1.3116e-05
1.27972e-05
1.25574e-05
1.2398e-05
1.23192e-05
1.23199e-05
1.23973e-05
1.25455e-05
1.27555e-05
1.30147e-05
1.33078e-05
1.36179e-05
1.39282e-05
1.4223e-05
1.44894e-05
1.4717e-05
1.48982e-05
1.50253e-05
1.50891e-05
1.5078e-05
1.49717e-05
1.47298e-05
1.42636e-05
1.33495e-05
1.12145e-05
1.96528e-06
2.36381e-06
1.3072e-05
1.57053e-05
1.68808e-05
1.74158e-05
1.75434e-05
1.73643e-05
1.69452e-05
1.63513e-05
1.56569e-05
1.49415e-05
1.42787e-05
1.37269e-05
1.33126e-05
1.30356e-05
1.28803e-05
1.28276e-05
1.28604e-05
1.29648e-05
1.31313e-05
1.33534e-05
1.36276e-05
1.39521e-05
1.43264e-05
1.47507e-05
1.5226e-05
1.57525e-05
1.63297e-05
1.6956e-05
1.76285e-05
1.83428e-05
1.90933e-05
1.98738e-05
2.06802e-05
2.15119e-05
2.23711e-05
2.32659e-05
2.42156e-05
2.52583e-05
2.64516e-05
2.78318e-05
2.93938e-05
3.10994e-05
2.93516e-05
2.75859e-05
2.58596e-05
2.42605e-05
2.28268e-05
2.15609e-05
2.0432e-05
1.93995e-05
1.84405e-05
1.75457e-05
1.67127e-05
1.59427e-05
1.52379e-05
1.46019e-05
1.40388e-05
1.35517e-05
1.31426e-05
1.28133e-05
1.25651e-05
1.23988e-05
1.23147e-05
1.23121e-05
1.23885e-05
1.25386e-05
1.27533e-05
1.30199e-05
1.33222e-05
1.36422e-05
1.39617e-05
1.42643e-05
1.45361e-05
1.47672e-05
1.49487e-05
1.50724e-05
1.51302e-05
1.51109e-05
1.49945e-05
1.47404e-05
1.42601e-05
1.33305e-05
1.11799e-05
1.96014e-06
2.34894e-06
1.29965e-05
1.56373e-05
1.68287e-05
1.73852e-05
1.75379e-05
1.73851e-05
1.69901e-05
1.64146e-05
1.57299e-05
1.50143e-05
1.43425e-05
1.37719e-05
1.33381e-05
1.30466e-05
1.2884e-05
1.28303e-05
1.28672e-05
1.29803e-05
1.3159e-05
1.33961e-05
1.36873e-05
1.40305e-05
1.44251e-05
1.48711e-05
1.53691e-05
1.59203e-05
1.65245e-05
1.71807e-05
1.78865e-05
1.86377e-05
1.94289e-05
2.02529e-05
2.11024e-05
2.19727e-05
2.2863e-05
2.37755e-05
2.47192e-05
2.57151e-05
2.68037e-05
2.80458e-05
2.9478e-05
3.10919e-05
3.28456e-05
3.10999e-05
2.93045e-05
2.75229e-05
2.58529e-05
2.43425e-05
2.29999e-05
2.17943e-05
2.06823e-05
1.96398e-05
1.86572e-05
1.77325e-05
1.6868e-05
1.60672e-05
1.53348e-05
1.4676e-05
1.40943e-05
1.35921e-05
1.31709e-05
1.28316e-05
1.2575e-05
1.24017e-05
1.23122e-05
1.23062e-05
1.23817e-05
1.25338e-05
1.27535e-05
1.30278e-05
1.33395e-05
1.36693e-05
1.3998e-05
1.43079e-05
1.45855e-05
1.48196e-05
1.50005e-05
1.51203e-05
1.51721e-05
1.5145e-05
1.50188e-05
1.4753e-05
1.42591e-05
1.33145e-05
1.11489e-05
1.95533e-06
2.33407e-06
1.29216e-05
1.55688e-05
1.67751e-05
1.73521e-05
1.75291e-05
1.74022e-05
1.70317e-05
1.64755e-05
1.58018e-05
1.50875e-05
1.4408e-05
1.38234e-05
1.33701e-05
1.30616e-05
1.28889e-05
1.28323e-05
1.28721e-05
1.29928e-05
1.31828e-05
1.34346e-05
1.37429e-05
1.41051e-05
1.45203e-05
1.49883e-05
1.55096e-05
1.60852e-05
1.67156e-05
1.74006e-05
1.81379e-05
1.89239e-05
1.97534e-05
2.06195e-05
2.15136e-05
2.24275e-05
2.33555e-05
2.42974e-05
2.52555e-05
2.62398e-05
2.72728e-05
2.83979e-05
2.96787e-05
3.11516e-05
3.28059e-05
3.45954e-05
3.28759e-05
3.10728e-05
2.92545e-05
2.75291e-05
2.59544e-05
2.45454e-05
2.32711e-05
2.20861e-05
2.09648e-05
1.98967e-05
1.8881e-05
1.79208e-05
1.70212e-05
1.61885e-05
1.54296e-05
1.47491e-05
1.415e-05
1.36338e-05
1.32011e-05
1.28521e-05
1.25872e-05
1.24068e-05
1.23117e-05
1.23023e-05
1.2377e-05
1.25314e-05
1.27566e-05
1.30388e-05
1.33599e-05
1.36995e-05
1.4037e-05
1.43547e-05
1.46379e-05
1.48739e-05
1.50528e-05
1.51687e-05
1.52148e-05
1.51801e-05
1.50446e-05
1.47674e-05
1.42604e-05
1.33014e-05
1.11212e-05
1.95135e-06
2.31937e-06
1.28473e-05
1.55e-05
1.67201e-05
1.73166e-05
1.75171e-05
1.74157e-05
1.70698e-05
1.65337e-05
1.58723e-05
1.51607e-05
1.44747e-05
1.38772e-05
1.34078e-05
1.30815e-05
1.28956e-05
1.28336e-05
1.28747e-05
1.30016e-05
1.32022e-05
1.34678e-05
1.3793e-05
1.41744e-05
1.46105e-05
1.51008e-05
1.56461e-05
1.62465e-05
1.69028e-05
1.76152e-05
1.83825e-05
1.92015e-05
2.0067e-05
2.09723e-05
2.19091e-05
2.28678e-05
2.3839e-05
2.48172e-05
2.58018e-05
2.67963e-05
2.78115e-05
2.88717e-05
3.00233e-05
3.13322e-05
3.28344e-05
3.45168e-05
3.633e-05
3.46618e-05
3.28744e-05
3.10402e-05
2.92766e-05
2.76524e-05
2.6189e-05
2.48568e-05
2.36075e-05
2.2414e-05
2.12654e-05
2.01613e-05
1.91059e-05
1.81059e-05
1.71697e-05
1.63064e-05
1.55224e-05
1.48218e-05
1.42065e-05
1.36771e-05
1.32334e-05
1.28748e-05
1.26014e-05
1.24138e-05
1.23132e-05
1.23005e-05
1.23747e-05
1.25318e-05
1.27628e-05
1.30532e-05
1.33839e-05
1.37332e-05
1.40797e-05
1.44051e-05
1.46925e-05
1.49284e-05
1.51054e-05
1.52176e-05
1.52582e-05
1.52163e-05
1.50717e-05
1.47837e-05
1.42642e-05
1.32912e-05
1.10968e-05
1.94793e-06
2.30471e-06
1.27738e-05
1.5431e-05
1.66639e-05
1.72789e-05
1.75021e-05
1.74257e-05
1.71044e-05
1.6589e-05
1.59412e-05
1.52337e-05
1.45424e-05
1.39327e-05
1.34479e-05
1.31059e-05
1.29055e-05
1.28347e-05
1.28747e-05
1.30064e-05
1.32162e-05
1.34949e-05
1.38363e-05
1.42367e-05
1.4694e-05
1.52072e-05
1.57765e-05
1.64024e-05
1.70852e-05
1.78248e-05
1.86208e-05
1.94704e-05
2.03694e-05
2.13112e-05
2.22875e-05
2.32887e-05
2.43042e-05
2.53239e-05
2.63425e-05
2.73599e-05
2.83805e-05
2.9416e-05
3.04933e-05
3.16611e-05
3.29871e-05
3.45073e-05
3.6206e-05
3.80305e-05
3.64391e-05
3.46921e-05
3.28641e-05
3.10817e-05
2.94242e-05
2.79205e-05
2.65428e-05
2.52401e-05
2.39836e-05
2.27618e-05
2.15742e-05
2.04263e-05
1.93262e-05
1.82848e-05
1.73135e-05
1.64212e-05
1.56139e-05
1.48945e-05
1.42641e-05
1.37222e-05
1.32676e-05
1.28994e-05
1.26174e-05
1.24226e-05
1.23166e-05
1.23008e-05
1.2375e-05
1.25353e-05
1.27724e-05
1.30713e-05
1.34117e-05
1.37707e-05
1.41266e-05
1.44583e-05
1.47473e-05
1.4983e-05
1.51581e-05
1.52668e-05
1.53023e-05
1.52535e-05
1.51002e-05
1.48018e-05
1.42702e-05
1.32838e-05
1.10755e-05
1.9452e-06
2.29055e-06
1.27011e-05
1.53618e-05
1.66067e-05
1.72392e-05
1.74842e-05
1.74322e-05
1.71353e-05
1.66413e-05
1.60081e-05
1.53061e-05
1.46109e-05
1.39899e-05
1.34899e-05
1.31325e-05
1.29186e-05
1.28371e-05
1.28724e-05
1.30069e-05
1.32245e-05
1.3515e-05
1.38717e-05
1.42904e-05
1.47687e-05
1.53052e-05
1.58992e-05
1.65511e-05
1.7261e-05
1.80283e-05
1.88522e-05
1.97312e-05
2.06611e-05
2.16365e-05
2.26486e-05
2.36886e-05
2.47455e-05
2.5808e-05
2.68657e-05
2.79138e-05
2.89528e-05
2.99884e-05
3.1034e-05
3.21182e-05
3.32917e-05
3.46243e-05
3.61514e-05
3.78546e-05
3.96789e-05
3.81894e-05
3.65078e-05
3.47095e-05
3.2929e-05
3.12562e-05
2.97278e-05
2.83184e-05
2.69749e-05
2.56664e-05
2.43808e-05
2.31175e-05
2.18825e-05
2.06851e-05
1.95385e-05
1.84571e-05
1.74527e-05
1.65336e-05
1.57046e-05
1.49677e-05
1.43231e-05
1.37689e-05
1.33034e-05
1.29253e-05
1.26347e-05
1.24328e-05
1.23216e-05
1.23033e-05
1.2378e-05
1.2542e-05
1.27858e-05
1.30935e-05
1.34435e-05
1.38128e-05
1.41766e-05
1.45114e-05
1.4802e-05
1.50376e-05
1.5211e-05
1.53164e-05
1.5347e-05
1.52916e-05
1.51301e-05
1.48217e-05
1.42785e-05
1.32791e-05
1.10573e-05
1.943e-06
2.27588e-06
1.26291e-05
1.52927e-05
1.65485e-05
1.71976e-05
1.74636e-05
1.74353e-05
1.71627e-05
1.66903e-05
1.60727e-05
1.53776e-05
1.46799e-05
1.40485e-05
1.35338e-05
1.31609e-05
1.29333e-05
1.28409e-05
1.28694e-05
1.3003e-05
1.32264e-05
1.35273e-05
1.38982e-05
1.43343e-05
1.48331e-05
1.53927e-05
1.6012e-05
1.66904e-05
1.74278e-05
1.82235e-05
1.90761e-05
1.99834e-05
2.09426e-05
2.19483e-05
2.29931e-05
2.40678e-05
2.51616e-05
2.62635e-05
2.73614e-05
2.84453e-05
2.95108e-05
3.05601e-05
3.15996e-05
3.26447e-05
3.37258e-05
3.48955e-05
3.62249e-05
3.7748e-05
3.94446e-05
4.12574e-05
3.98945e-05
3.83037e-05
3.65594e-05
3.48024e-05
3.31333e-05
3.15971e-05
3.01708e-05
2.88002e-05
2.74528e-05
2.61149e-05
2.47857e-05
2.34714e-05
2.21824e-05
2.09336e-05
1.97423e-05
1.86235e-05
1.75882e-05
1.66441e-05
1.5795e-05
1.50419e-05
1.43832e-05
1.38166e-05
1.33399e-05
1.2952e-05
1.26528e-05
1.2444e-05
1.23282e-05
1.23079e-05
1.23838e-05
1.25522e-05
1.28032e-05
1.31197e-05
1.34801e-05
1.38583e-05
1.42266e-05
1.45644e-05
1.48564e-05
1.5092e-05
1.5264e-05
1.53663e-05
1.53922e-05
1.53306e-05
1.51612e-05
1.48433e-05
1.4289e-05
1.32771e-05
1.10421e-05
1.94175e-06
2.26162e-06
1.25582e-05
1.52236e-05
1.64895e-05
1.71542e-05
1.74403e-05
1.74351e-05
1.71864e-05
1.6736e-05
1.61349e-05
1.5448e-05
1.47491e-05
1.41084e-05
1.35795e-05
1.31911e-05
1.29494e-05
1.28459e-05
1.28662e-05
1.29962e-05
1.3222e-05
1.35314e-05
1.3915e-05
1.43673e-05
1.48855e-05
1.54676e-05
1.61122e-05
1.68178e-05
1.75834e-05
1.84081e-05
1.92899e-05
2.02262e-05
2.12135e-05
2.22474e-05
2.33216e-05
2.44269e-05
2.55532e-05
2.66893e-05
2.78235e-05
2.89441e-05
3.00413e-05
3.11121e-05
3.21598e-05
3.31927e-05
3.42275e-05
3.52961e-05
3.64531e-05
3.777e-05
3.92792e-05
4.09584e-05
4.2749e-05
4.15364e-05
4.00617e-05
3.83961e-05
3.66851e-05
3.50393e-05
3.35129e-05
3.20857e-05
3.07028e-05
2.93302e-05
2.79529e-05
2.65698e-05
2.51867e-05
2.38144e-05
2.24694e-05