/*--------------------------------*- C++ -*----------------------------------*\
  =========                 |
  \\      /  F ield         | OpenFOAM: The Open Source CFD Toolbox
   \\    /   O peration     | Website:  https://openfoam.org
    \\  /    A nd           | Version:  7
     \\/     M anipulation  |
\*---------------------------------------------------------------------------*/
FoamFile
{
    version     2.0;
    format      ascii;
    class       volScalarField;
    location    "0";
    object      nut;
}
// * * * * * * * * * * * * * * * * * * * * * * * * * * * * * * * * * * * * * //

dimensions      [0 2 -1 0 0 0 0];

internalField   nonuniform List<scalar> 
10981
(
1.36921e-07
1.37589e-07
7.01559e-06
1.36234e-07
1.39168e-07
7.04088e-06
1.37447e-05
6.99708e-06
1.35524e-07
1.42221e-07
7.08841e-06
1.3787e-05
2.00015e-05
1.37167e-05
6.98353e-06
1.35359e-07
1.47275e-07
7.16689e-06
1.38653e-05
2.00418e-05
2.62038e-05
1.9981e-05
1.3696e-05
6.98287e-06
1.36538e-07
1.54239e-07
7.29081e-06
1.39963e-05
2.01334e-05
2.62237e-05
3.26011e-05
2.62103e-05
1.99694e-05
1.36941e-05
7.0133e-06
1.39411e-07
1.62796e-07
7.46672e-06
1.41947e-05
2.02985e-05
2.6309e-05
3.25765e-05
3.93997e-05
3.26559e-05
2.6229e-05
1.99781e-05
1.37385e-05
7.08438e-06
1.4411e-07
1.72735e-07
7.67548e-06
1.44611e-05
2.05549e-05
2.64872e-05
3.26347e-05
3.93077e-05
4.67747e-05
3.95237e-05
3.27259e-05
2.62711e-05
2.00487e-05
1.38408e-05
7.2082e-06
1.50376e-07
1.83878e-07
7.90781e-06
1.47713e-05
2.08949e-05
2.6783e-05
3.28107e-05
3.93144e-05
4.66006e-05
5.48836e-05
4.69847e-05
3.96632e-05
3.28233e-05
2.63871e-05
2.01989e-05
1.40162e-05
7.37417e-06
1.57979e-07
1.95663e-07
8.15933e-06
1.51123e-05
2.12896e-05
2.71784e-05
3.31242e-05
3.94663e-05
4.6541e-05
5.46152e-05
6.38486e-05
5.51882e-05
4.72092e-05
3.98303e-05
3.30117e-05
2.66079e-05
2.04482e-05
1.42627e-05
7.56611e-06
1.66454e-07
2.08478e-07
8.41906e-06
1.54795e-05
2.17235e-05
2.76441e-05
3.35633e-05
3.97871e-05
4.66534e-05
5.44836e-05
6.34876e-05
7.37576e-05
6.42454e-05
5.55043e-05
4.7464e-05
4.01085e-05
3.33279e-05
2.69599e-05
2.07952e-05
1.45511e-05
7.77532e-06
1.75628e-07
2.21396e-07
8.686e-06
1.58584e-05
2.2187e-05
2.81531e-05
3.40834e-05
4.02564e-05
4.69702e-05
5.45508e-05
6.32813e-05
7.3314e-05
8.46629e-05
7.42329e-05
6.46473e-05
5.58505e-05
4.7845e-05
4.05502e-05
3.38139e-05
2.7438e-05
2.12056e-05
1.48684e-05
7.99844e-06
1.85296e-07
2.34415e-07
8.95293e-06
1.62518e-05
2.26671e-05
2.86986e-05
3.46547e-05
4.08223e-05
4.7463e-05
5.48576e-05
6.33108e-05
7.30467e-05
8.41616e-05
9.65892e-05
8.51921e-05
7.47057e-05
6.50782e-05
5.63408e-05
4.84226e-05
4.11926e-05
3.44541e-05
2.80024e-05
2.16584e-05
1.52121e-05
8.22299e-06
1.95347e-07
2.47815e-07
9.21808e-06
1.66483e-05
2.31621e-05
2.92633e-05
3.52668e-05
4.14486e-05
4.80695e-05
5.53772e-05
6.36185e-05
7.30527e-05
8.38575e-05
9.60605e-05
0.000109557
9.71395e-05
8.57093e-05
7.52033e-05
6.5676e-05
5.70588e-05
4.92446e-05
4.20293e-05
3.52081e-05
2.86271e-05
2.21501e-05
1.55656e-05
8.45445e-06
2.05174e-07
2.60984e-07
9.4837e-06
1.70427e-05
2.36647e-05
2.98461e-05
3.59037e-05
4.21141e-05
4.87474e-05
5.60307e-05
6.41775e-05
7.3384e-05
8.3864e-05
9.57571e-05
0.000109039
0.000123596
0.000110089
9.7669e-05
8.62482e-05
7.58872e-05
6.65329e-05
5.8067e-05
5.02944e-05
4.30012e-05
3.6036e-05
2.93018e-05
2.26576e-05
1.59342e-05
8.68136e-06
2.1524e-07
2.74692e-07
9.75188e-06
1.74392e-05
2.41692e-05
3.04356e-05
3.65558e-05
4.28136e-05
4.94705e-05
5.67674e-05
6.48941e-05
7.40073e-05
8.42495e-05
9.58018e-05
0.000108776
0.000123136
0.000138782
0.000124067
0.00011059
9.82147e-05
8.69915e-05
7.68705e-05
6.772e-05
5.93405e-05
5.15038e-05
4.40595e-05
3.69289e-05
3.00042e-05
2.31901e-05
1.63013e-05
8.90842e-06
2.24962e-07
2.89209e-07
1.00108e-05
1.78391e-05
2.46782e-05
3.10294e-05
3.7218e-05
4.3525e-05
5.02248e-05
5.75563e-05
6.57076e-05
7.48167e-05
8.49759e-05
9.62838e-05
0.000108904
0.00012296
0.000138427
0.000155247
0.000139149
0.000124499
0.000111104
9.89856e-05
8.80727e-05
7.82231e-05
6.92126e-05
6.07948e-05
5.28173e-05
4.51935e-05
3.7855e-05
3.07334e-05
2.37308e-05
1.66695e-05
9.13798e-06
2.34876e-07
3.03356e-07
1.02684e-05
1.8234e-05
2.51892e-05
3.16271e-05
3.78822e-05
4.42458e-05
5.0994e-05
5.83745e-05
6.65819e-05
7.57412e-05
8.59209e-05
9.7164e-05
0.000109538
0.000123229
0.000138384
0.000155038
0.000173191
0.000155466
0.000139469
0.000124943
0.000111864
0.000100131
8.95671e-05
7.99173e-05
7.09042e-05
6.23643e-05
5.42015e-05
4.63707e-05
3.8814e-05
3.14771e-05
2.42738e-05
1.7044e-05
9.36006e-06
2.45451e-07
3.18116e-07
1.05286e-05
1.86301e-05
2.56994e-05
3.22284e-05
3.855e-05
4.49713e-05
5.17698e-05
5.92119e-05
6.74885e-05
7.67319e-05
8.70006e-05
9.83005e-05
0.000110631
0.000124072
0.000138854
0.000155187
0.000173177
0.000192899
0.000173221
0.000155631
0.000139801
0.000125657
0.000113038
0.000101735
9.1436e-05
8.18279e-05
7.27194e-05
6.40073e-05
5.56397e-05
4.75751e-05
3.97866e-05
3.22244e-05
2.4826e-05
1.74244e-05
9.58141e-06
2.55843e-07
3.32932e-07
1.07853e-05
1.90301e-05
2.62131e-05
3.28342e-05
3.92261e-05
4.56971e-05
5.25499e-05
6.00476e-05
6.84103e-05
7.77631e-05
8.8163e-05
9.95932e-05
0.000112025
0.00012545
0.000139981
0.000155918
0.000173564
0.000193115
0.000214706
0.000192702
0.00017319
0.000155806
0.000140428
0.000126821
0.000114718
0.000103748
9.35367e-05
8.38641e-05
7.46085e-05
6.56979e-05
5.70966e-05
4.87963e-05
4.0763e-05
3.29829e-05
2.53873e-05
1.78025e-05
9.80717e-06
2.66355e-07
3.47498e-07
1.10451e-05
1.94264e-05
2.67294e-05
3.34442e-05
3.99042e-05
4.64299e-05
5.33263e-05
6.08838e-05
6.93326e-05
7.88072e-05
8.93642e-05
0.000100986
0.000113609
0.000127178
0.000141723
0.000157402
0.000174627
0.000193796
0.000215192
0.000238991
0.000214249
0.000192439
0.000173178
0.000156318
0.00014156
0.000128548
0.000116845
0.000106007
9.57697e-05
8.59714e-05
7.65304e-05
6.73997e-05
5.85633e-05
5.0014e-05
4.17474e-05
3.37505e-05
2.59484e-05
1.81863e-05
1.00291e-05
2.77209e-07
3.62392e-07
1.12986e-05
1.98244e-05
2.7251e-05
3.40607e-05
4.05913e-05
4.71649e-05
5.41067e-05
6.17166e-05
7.02434e-05
7.98459e-05
9.05835e-05
0.000102426
0.000115304
0.000129134
0.000143874
0.000159598
0.000176552
0.000195249
0.000216214
0.00023977
0.000266118
0.000238248
0.000213718
0.000192196
0.000173543
0.000157388
0.000143305
0.000130759
0.000119235
0.000108397
9.80598e-05
8.81024e-05
7.84618e-05
6.90964e-05
6.00211e-05
5.1229e-05
4.2736e-05
3.45194e-05
2.65165e-05
1.85722e-05
1.02567e-05
2.87685e-07
3.76659e-07
1.15479e-05
2.02225e-05
2.77735e-05
3.4681e-05
4.12849e-05
4.79096e-05
5.48918e-05
6.2547e-05
7.11477e-05
8.08717e-05
9.17923e-05
0.00010389
0.000117062
0.000131222
0.000146296
0.000162277
0.0001793
0.000197711
0.000218127
0.00024118
0.000267212
0.000296357
0.00026507
0.000237424
0.000213218
0.000192388
0.000174534
0.00015914
0.000145586
0.000133253
0.000121754
0.000110845
0.000100364
9.0222e-05
8.03644e-05
7.07763e-05
6.14616e-05
5.24453e-05
4.37258e-05
3.52959e-05
2.70933e-05
1.89602e-05
1.04798e-05
2.98369e-07
3.90683e-07
1.17922e-05
2.0615e-05
2.82953e-05
3.53078e-05
4.19861e-05
4.86648e-05
5.56839e-05
6.33792e-05
7.2043e-05
8.18817e-05
9.29808e-05
0.000105338
0.000118852
0.000133397
0.000148882
0.000165277
0.000182621
0.000201119
0.000221209
0.000243618
0.000269031
0.000297777
0.000329826
0.000294994
0.00026393
0.000236637
0.000213222
0.000193293
0.000176286
0.000161486
0.000148171
0.000135886
0.000124324
0.000113288
0.000102641
9.23039e-05
8.22314e-05
7.24214e-05
6.2893e-05
5.36499e-05
4.47166e-05
3.6074e-05
2.76714e-05
1.93541e-05
1.06983e-05
3.08832e-07
4.04695e-07
1.20268e-05
2.09982e-05
2.88128e-05
3.59346e-05
4.26957e-05
4.9427e-05
5.64847e-05
6.42166e-05
7.29391e-05
8.28774e-05
9.41495e-05
0.000106761
0.000120628
0.000135608
0.000151579
0.000168476
0.000186317
0.000205197
0.000225391
0.000247402
0.000272049
0.000300026
0.000331567
0.000366409
0.000328153
0.000293532
0.000262839
0.00023644
0.000214033
0.00019506
0.000178708
0.00016417
0.000150908
0.00013856
0.000126878
0.000115689
0.000104858
9.43254e-05
8.40519e-05
7.40394e-05
6.43011e-05
5.48542e-05
4.57092e-05
3.68584e-05
2.82524e-05
1.97429e-05
1.09166e-05
3.18779e-07
4.17062e-07
1.2243e-05
2.1372e-05
2.93223e-05
3.65564e-05
4.34056e-05
5.01972e-05
5.72929e-05
6.5063e-05
7.38362e-05
8.38699e-05
9.53024e-05
0.000108161
0.000122373
0.000137809
0.000154325
0.000171813
0.000190259
0.000209722
0.000230352
0.000252459
0.000276601
0.000303646
0.000334248
0.000368459
0.000405742
0.000364447
0.00032637
0.000292127
0.000262433
0.00023717
0.000215845
0.000197586
0.000181516
0.000167021
0.000153683
0.000141211
0.000129382
0.000118012
0.000107
9.62848e-05
8.58265e-05
7.56255e-05
6.56953e-05
5.605e-05
4.66997e-05
3.76435e-05
2.88322e-05
2.01287e-05
1.11223e-05
3.28953e-07
4.27506e-07
1.24455e-05
2.17254e-05
2.98175e-05
3.71732e-05
4.41102e-05
5.09684e-05
5.81113e-05
6.59161e-05
7.47353e-05
8.48542e-05
9.64409e-05
0.000109534
0.000124092
0.000139985
0.000157066
0.000175219
0.000194365
0.000214542
0.000235827
0.000258414
0.000282619
0.000309014
0.000338471
0.000371547
0.000408063
0.000447202
0.000403523
0.000362364
0.000324662
0.000291514
0.000263101
0.000239059
0.000218528
0.000200568
0.000184519
0.000169918
0.000156438
0.000143802
0.000131787
0.000120241
0.000109063
9.81777e-05
8.75551e-05
7.71851e-05
6.7074e-05
5.7235e-05
4.76883e-05
3.84218e-05
2.94063e-05
2.0504e-05
1.13163e-05
3.3847e-07
4.36388e-07
1.26347e-05
2.206e-05
3.02938e-05
3.77771e-05
4.48106e-05
5.17409e-05
5.89307e-05
6.67764e-05
7.56436e-05
8.58427e-05
9.75692e-05
0.000110894
0.000125778
0.00014212
0.000159783
0.000178629
0.000198563
0.000219551
0.000241653
0.00026496
0.00028965
0.000316034
0.000344658
0.000376342
0.000411517
0.000449746
0.000489958
0.000444768
0.000401174
0.000360374
0.000323856
0.000292149
0.000265109
0.000241962
0.000221745
0.00020378
0.000187582
0.000172802
0.000159122
0.000146283
0.000134082
0.000122373
0.000111043
0.000100013
8.92399e-05
7.87165e-05
6.84326e-05
5.84119e-05
4.8661e-05
3.91899e-05
2.99627e-05
2.08677e-05
1.15014e-05
3.46151e-07
4.43902e-07
1.27941e-05
2.23728e-05
3.07491e-05
3.83593e-05
4.54989e-05
5.25027e-05
5.97455e-05
6.76347e-05
7.65566e-05
8.68333e-05
9.86952e-05
0.00011224
0.000127446
0.000144231
0.000162459
0.000182012
0.000202775
0.000224674
0.0002477
0.000271898
0.000297344
0.00032418
0.000352673
0.000383298
0.000416817
0.000453498
0.00049268
0.000533118
0.000487358
0.000442197
0.000398933
0.000359393
0.000324475
0.000294319
0.000268305
0.000245502
0.000225246
0.000207079
0.00019064
0.00017561
0.000161686
0.00014864
0.00013627
0.000124415
0.000112953
0.000101792
9.08862e-05
8.02132e-05
6.97708e-05
5.95659e-05
4.96121e-05
3.99384e-05
3.05031e-05
2.12082e-05
1.16677e-05
3.52909e-07
4.48678e-07
1.29346e-05
2.2654e-05
3.11786e-05
3.89177e-05
4.61679e-05
5.32499e-05
6.0555e-05
6.84881e-05
7.74633e-05
8.78266e-05
9.9821e-05
0.000113576
0.0001291
0.000146313
0.000165112
0.000185357
0.000206957
0.000229819
0.000253871
0.000279078
0.000305473
0.000333056
0.000361914
0.000392242
0.000424445
0.000459209
0.000496654
0.000535964
0.000575824
0.000530402
0.000484615
0.000439745
0.000397803
0.000360014
0.000326849
0.000297871
0.00027225
0.000249385
0.000228875
0.000210386
0.000193629
0.000178294
0.000164124
0.00015088
0.00013835
0.00012637
0.000114788
0.000103515
9.24897e-05
8.16796e-05
7.10705e-05
6.06836e-05
5.05382e-05
4.06554e-05
3.10135e-05
2.15213e-05
1.18138e-05
3.58495e-07
4.51636e-07
1.30467e-05
2.29041e-05
3.15724e-05
3.9447e-05
4.68058e-05
5.39778e-05
6.13431e-05
6.93285e-05
7.8359e-05
8.88101e-05
0.000100946
0.000114909
0.000130743
0.000148382
0.000167731
0.000188676
0.000211103
0.000234927
0.000260063
0.000286396
0.000313849
0.000342382
0.000371931
0.000402493
0.000434178
0.00046737
0.000502659
0.000540077
0.000578739
0.000617362
0.000573041
0.000527544
0.000482008
0.000438493
0.000398436
0.000362613
0.000330803
0.000302299
0.000276616
0.00025344
0.000232528
0.000213636
0.000196495
0.000180846
0.000166428
0.000153
0.000140337
0.000128241
0.000116561
0.000105187
9.40493e-05
8.30994e-05
7.23337e-05
6.17624e-05
5.14248e-05
4.13328e-05
3.14878e-05
2.18137e-05
1.19353e-05
3.62648e-07
4.53102e-07
1.31282e-05
2.31213e-05
3.1928e-05
3.99364e-05
4.74125e-05
5.4675e-05
6.2108e-05
7.01462e-05
7.92339e-05
8.97734e-05
0.000102052
0.000116237
0.000132379
0.000150444
0.000170337
0.000191962
0.000215216
0.000239996
0.000266204
0.000293716
0.000322346
0.00035196
0.0003824
0.000413532
0.00044528
0.000477717
0.000511181
0.000546259
0.00058292
0.000620305
0.000657245
0.000614549
0.000570113
0.000524836
0.000480663
0.000439141
0.000401248
0.000366984
0.000335757
0.000307224
0.0002812
0.00025755
0.000236139
0.000216768
0.000199222
0.000183257
0.000168615
0.00015502
0.000142236
0.00013004
0.000118272
0.000106807
9.55481e-05
8.44616e-05
7.3539e-05
6.27889e-05
5.2255e-05
4.19623e-05
3.19267e-05
2.20628e-05
1.20381e-05
3.65243e-07
4.52106e-07
1.3171e-05
2.32963e-05
3.22423e-05
4.03885e-05
4.79823e-05
5.53345e-05
6.28344e-05
7.09316e-05
8.00776e-05
9.07046e-05
0.000103131
0.000117541
0.000134002
0.000152494
0.000172932
0.000195234
0.000219293
0.00024502
0.000272288
0.000300963
0.000330826
0.000361614
0.00039308
0.000424996
0.000457151
0.000489439
0.00052193
0.000554968
0.000589158
0.000624484
0.00066018
0.000695234
0.000654434
0.000611593
0.000567341
0.000523417
0.000481318
0.000442141
0.000406008
0.00037247
0.000341294
0.000312423
0.000285861
0.000261633
0.000239639
0.000219758
0.00020181
0.000185554
0.000170692
0.000156951
0.000144052
0.00013177
0.000119921
0.000108356
9.69814e-05
8.5763e-05
7.4675e-05
6.3753e-05
5.3022e-05
4.25408e-05
3.23128e-05
2.22864e-05
1.21064e-05
3.66669e-07
4.49754e-07
1.31838e-05
2.3419e-05
3.25085e-05
4.07914e-05
4.85069e-05
5.59546e-05
6.3523e-05
7.16704e-05
8.08787e-05
9.1592e-05
0.000104163
0.000118804
0.000135597
0.000154524
0.000175521
0.000198488
0.000223352
0.000249998
0.000278314
0.000308119
0.000339188
0.000371204
0.000403795
0.000436617
0.000469396
0.000501898
0.000534025
0.000565887
0.000597894
0.000630682
0.000664308
0.000698131
0.000731317
0.000692448
0.00065148
0.000608797
0.000565872
0.000524067
0.000484453
0.000447217
0.00041199
0.00037861
0.000347138
0.000317722
0.00029052
0.00026561
0.000242992
0.000222612
0.000204283
0.000187738
0.000172679
0.000158796
0.000145795
0.000133433
0.000121493
0.000109827
9.83377e-05
8.69779e-05
7.57336e-05
6.46311e-05
5.37237e-05
4.30533e-05
3.26524e-05
2.24653e-05
1.21457e-05
3.66413e-07
4.47312e-07
1.31921e-05
2.35097e-05
3.27188e-05
4.11413e-05
4.89796e-05
5.65255e-05
6.41629e-05
7.23593e-05
8.16197e-05
9.24156e-05
0.000105132
0.000120007
0.00013714
0.00015652
0.000178087
0.000201738
0.000227389
0.000254947
0.000284281
0.000315185
0.000347412
0.000380616
0.000414368
0.000448197
0.000481721
0.000514649
0.000546794
0.000578107
0.000608779
0.000639306
0.000670393
0.00070217
0.000734155
0.000765656
0.000728576
0.000689514
0.000648687
0.000607294
0.000566504
0.000527265
0.000489759
0.000453605
0.000418676
0.000385094
0.000353112
0.00032302
0.000295071
0.000269437
0.000246217
0.000225351
0.000206646
0.000189834
0.000174586
0.000160566
0.000147467
0.000135011
0.000122979
0.000111209
9.96002e-05
8.8102e-05
7.66956e-05
6.54235e-05
5.43393e-05
4.35003e-05
3.29347e-05
2.25968e-05
1.21573e-05
3.64491e-07
4.44775e-07
1.31934e-05
2.35856e-05
3.28843e-05
4.14278e-05
4.93955e-05
5.70443e-05
6.47486e-05
7.29908e-05
8.22924e-05
9.31633e-05
0.000106017
0.000121126
0.000138604
0.000158455
0.000180602
0.000204963
0.000231416
0.000259871
0.000290188
0.000322161
0.000355504
0.000389825
0.000424689
0.000459552
0.000493913
0.000527401
0.000559773
0.000590921
0.000620896
0.000649998
0.000678805
0.000708087
0.000738071
0.000768401
0.000798497
0.000762986
0.000725683
0.000686743
0.000647163
0.000607887
0.000569701
0.000532691
0.000496417
0.000460719
0.000425718
0.000391703
0.000359073
0.000328208
0.000299466
0.000273131
0.000249329
0.000227986
0.000208928
0.000191853
0.00017642
0.000162262
0.000149052
0.000136497
0.000124363
0.000112485
0.000100756
8.9108e-05
7.75514e-05
6.61208e-05
5.48742e-05
4.38731e-05
3.31579e-05
2.26865e-05
1.21619e-05
3.62631e-07
4.42208e-07
1.31908e-05
2.36551e-05
3.30388e-05
4.16651e-05
4.97413e-05
5.74983e-05
6.5279e-05
7.35593e-05
8.28952e-05
9.38236e-05
0.000106798
0.000122133
0.000139958
0.000160287
0.000183041
0.000208128
0.000235413
0.000264764
0.00029605
0.000329054
0.000363451
0.000398842
0.000434725
0.000470562
0.00050579
0.000539926
0.000572658
0.00060386
0.000633531
0.000661839
0.000689187
0.000716227
0.000743783
0.000772162
0.000801106
0.000830096
0.00079593
0.00076015
0.000722952
0.00068521
0.000647707
0.000611032
0.000575132
0.00053948
0.000503816
0.000468187
0.00043287
0.000398289
0.000364909
0.000333224
0.000303719
0.000276712
0.000252339
0.000230547
0.000211137
0.000193807
0.000178175
0.000163873
0.000150541
0.000137876
0.000125635
0.000113643
0.000101781
8.99976e-05
7.82951e-05
6.67119e-05
5.53156e-05
4.41712e-05
3.33203e-05
2.27492e-05
1.2162e-05
3.60905e-07
4.3952e-07
1.31859e-05
2.37184e-05
3.31861e-05
4.18958e-05
5.00394e-05
5.78759e-05
6.57339e-05
7.40611e-05
8.34173e-05
9.43852e-05
0.000107461
0.000123
0.000141172
0.000161983
0.000185363
0.000211191
0.000239334
0.000269616
0.000301868
0.00033586
0.000371268
0.000407652
0.000444485
0.000481199
0.00051722
0.000552027
0.000585221
0.00061661
0.000646201
0.000674116
0.000700632
0.000726224
0.000751601
0.000777632
0.000804664
0.00083251
0.000860656
0.000827684
0.000793175
0.000757466
0.000721417
0.000685708
0.000650761
0.000616379
0.000581919
0.000546997
0.000511541
0.000475744
0.000439972
0.000404713
0.000370543
0.000338079
0.000307853
0.000280205
0.00025528
0.000233044
0.000213294
0.000195692
0.000179848
0.000165384
0.000151916
0.000139132
0.000126774
0.000114662
0.000102672
9.07565e-05
7.89149e-05
6.72e-05
5.56679e-05
4.43876e-05
3.34379e-05
2.281e-05
1.21629e-05
3.59348e-07
4.36897e-07
1.31795e-05
2.3777e-05
3.3326e-05
4.212e-05
5.03305e-05
5.82055e-05
6.61088e-05
7.44744e-05
8.38516e-05
9.484e-05
0.000107995
0.000123708
0.000142202
0.0001635
0.000187517
0.000214115
0.00024313
0.000274373
0.000307618
0.000342592
0.000378956
0.000416271
0.000453974
0.000491476
0.00052819
0.000563597
0.000597272
0.000628958
0.000658605
0.000686355
0.000712431
0.000737199
0.000761168
0.000785096
0.000809845
0.000835799
0.000862788
0.00089028
0.000858475
0.000825051
0.000790557
0.000755945
0.000721872
0.000688657
0.000655971
0.000623055
0.000589407
0.00055481
0.000519323
0.000483204
0.000446872
0.000410902
0.000375984
0.000342804
0.00031189
0.000283627
0.000258176
0.0002355
0.00021539
0.000197493
0.000181427
0.000166778
0.000153163
0.000140245
0.000127764
0.000115529
0.00010342
9.13767e-05
7.94202e-05
6.75766e-05
5.59176e-05
4.45499e-05
3.35526e-05
2.28701e-05
1.2165e-05
3.57852e-07
4.34155e-07
1.31717e-05
2.38318e-05
3.34595e-05
4.23371e-05
5.06192e-05
5.85328e-05
6.64329e-05
7.48017e-05
8.41794e-05
9.51823e-05
0.000108385
0.000124247
0.000143029
0.000164788
0.000189448
0.000216832
0.000246754
0.00027898
0.00031324
0.000349223
0.000386531
0.000424698
0.000463193
0.000501396
0.00053871
0.000574615
0.000608708
0.000640712
0.000670529
0.000698249
0.000724123
0.000748446
0.000771623
0.000794187
0.000816903
0.000840617
0.000865715
0.000892011
0.000918934
0.000888433
0.000856026
0.000822531
0.000789072
0.000756382
0.000724731
0.000693715
0.000662474
0.00063041
0.000597164
0.000562648
0.000526971
0.00049042
0.00045349
0.000416861
0.000381276
0.000347418
0.000315863
0.000287007
0.000261035
0.000237911
0.000217412
0.0001992
0.000182885
0.000168037
0.00015426
0.000141201
0.000128597
0.000116243
0.000104014
9.18681e-05
7.97941e-05
6.78348e-05
5.61001e-05
4.4702e-05
3.36645e-05
2.29297e-05
1.21681e-05
3.56561e-07
4.31448e-07
1.31627e-05
2.38834e-05
3.35877e-05
4.25479e-05
5.09042e-05
5.88637e-05
6.67616e-05
7.50709e-05
8.44077e-05
9.53886e-05
0.000108621
0.000124597
0.000143625
0.000165819
0.000191096
0.000219282
0.00025013
0.000283359
0.00031867
0.000355676
0.000393938
0.000432955
0.000472165
0.000510976
0.0005488
0.000585112
0.000619523
0.000651788
0.000681801
0.000709602
0.000735405
0.000759509
0.000782261
0.000804066
0.000825461
0.000847184
0.000870061
0.000894445
0.000920118
0.000946443
0.000917557
0.000886258
0.000853657
0.000821115
0.000789522
0.000759181
0.000729652
0.000700032
0.000669633
0.000638001
0.000604909
0.000570307
0.000534319
0.000497297
0.000459829
0.000422624
0.00038643
0.000351953
0.000319792
0.000290365
0.000263863
0.000240255
0.000219338
0.000200791
0.000184204
0.000169142
0.000155188
0.000141988
0.000129262
0.000116791
0.000104465
9.22147e-05
8.00379e-05
6.80106e-05
5.62675e-05
4.48487e-05
3.37738e-05
2.29888e-05
1.21723e-05
3.55313e-07
4.28806e-07
1.31529e-05
2.39321e-05
3.37113e-05
4.27531e-05
5.11847e-05
5.91955e-05
6.71004e-05
7.53531e-05
8.45642e-05
9.54609e-05
0.000108677
0.000124738
0.000143981
0.000166557
0.00019242
0.000221383
0.000253173
0.000287447
0.00032383
0.00036189
0.00040113
0.000440993
0.000480887
0.000520236
0.000558471
0.000595096
0.000629738
0.00066218
0.000692333
0.000720252
0.000746081
0.000770096
0.000792629
0.000814025
0.00083468
0.000855107
0.00087601
0.00089817
0.000921893
0.000946903
0.000972496
0.000945704
0.000915781
0.000884117
0.00085236
0.000821623
0.00079232
0.000764015
0.000735813
0.000706982
0.000677011
0.000645553
0.000612442
0.000577623
0.000541286
0.000503855
0.000465935
0.000428226
0.000391488
0.000356437
0.000323702
0.0002937
0.000266632
0.000242504
0.00022115
0.000202237
0.000185359
0.000170066
0.000155934
0.000142598
0.000129748
0.000117185
0.000104765
9.24202e-05
8.01836e-05
6.81703e-05
5.64279e-05
4.49908e-05
3.38804e-05
2.30472e-05
1.21775e-05
3.54222e-07
4.26053e-07
1.31421e-05
2.39781e-05
3.38304e-05
4.29529e-05
5.14608e-05
5.95274e-05
6.74474e-05
7.56541e-05
8.47428e-05
9.54463e-05
0.000108556
0.000124639
0.000144061
0.000166979
0.000193386
0.000223096
0.000255813
0.000291141
0.000328633
0.000367772
0.000408012
0.000448738
0.000489325
0.000529173
0.000567752
0.000604607
0.000639393
0.000671921
0.000702139
0.000730115
0.000756001
0.000780011
0.000802439
0.000823611
0.000843855
0.000863538
0.000883137
0.00090332
0.000924802
0.000947819
0.000972028
0.000996673
0.000972595
0.000944489
0.000913979
0.000883013
0.000852986
0.000824479
0.000797133
0.000770079
0.000742594
0.000714143
0.000684326
0.00065287
0.000619593
0.00058452
0.000547883
0.000510129
0.000471834
0.000433695
0.000396473
0.000360909
0.000327594
0.000296978
0.000269314
0.000244638
0.000222808
0.000203508
0.000186321
0.000170798
0.000156494
0.000143019
0.000130069
0.000117416
0.000104906
9.25136e-05
8.03116e-05
6.83204e-05
5.65811e-05
4.51279e-05
3.39844e-05
2.31051e-05
1.21836e-05
3.53313e-07
4.23373e-07
1.31305e-05
2.40216e-05
3.39458e-05
4.31482e-05
5.1733e-05
5.98585e-05
6.78002e-05
7.59714e-05
8.49495e-05
9.54608e-05
0.000108318
0.000124302
0.000143826
0.000167054
0.000193958
0.000224371
0.000257975
0.000294357
0.000332969
0.000373241
0.000414502
0.000456121
0.000497417
0.000537766
0.000576647
0.000613657
0.000648508
0.000681042
0.000711245
0.000739204
0.000765091
0.000789108
0.000811494
0.000832532
0.000852524
0.000871763
0.000890584
0.00090943
0.000928913
0.000949674
0.000971857
0.000995052
0.00101847
0.000997834
0.000972134
0.000943173
0.000913165
0.000883829
0.000855976
0.000829363
0.000803184
0.000776763
0.000749582
0.000721233
0.000691389
0.000659787
0.000626303
0.000591016
0.000554165
0.000516163
0.000477568
0.000439075
0.000401427
0.000365335
0.000331418
0.000300161
0.000271862
0.00024661
0.00022428
0.000204569
0.000187075
0.000171324
0.000156853
0.00014326
0.000130217
0.000117476
0.000104928
9.25885e-05
8.04293e-05
6.84622e-05
5.67274e-05
4.526e-05
3.40854e-05
2.31621e-05
1.21906e-05
3.52429e-07
4.20692e-07
1.31181e-05
2.40625e-05
3.40572e-05
4.33386e-05
5.20008e-05
6.0188e-05
6.81579e-05
7.63028e-05
8.51821e-05
9.55123e-05
0.000108113
0.000123806
0.000143277
0.000166725
0.000194088
0.000225158
0.000259622
0.000297016
0.000336753
0.000378167
0.000420508
0.000463044
0.000505069
0.000545945
0.000585135
0.000622267
0.000657114
0.000689587
0.000719693
0.000747553
0.000773357
0.000797319
0.000819653
0.000840593
0.000860388
0.000879312
0.000897623
0.000915624
0.000933715
0.000952458
0.000972388
0.000993548
0.00101546
0.00103731
0.00102093
0.000998355
0.000971487
0.000942771
0.000914258
0.000887039
0.000861019
0.000835496
0.000809863
0.000783655
0.0007565
0.000728062
0.000698045
0.000666235
0.000632584
0.000597151
0.000560161
0.000521991
0.000483181
0.000444389
0.000406326
0.000369692
0.000335139
0.000303204
0.000274234
0.000248369
0.000225514
0.0002054
0.000187605
0.000171638
0.000157013
0.000143316
0.000130183
0.000117409
0.00010493
9.26525e-05
8.05371e-05
6.85954e-05
5.6867e-05
4.53874e-05
3.41838e-05
2.32184e-05
1.21987e-05
3.51711e-07
4.18043e-07
1.3105e-05
2.4101e-05
3.41648e-05
4.35248e-05
5.22648e-05
6.05162e-05
6.85194e-05
7.66466e-05
8.54383e-05
9.55988e-05
0.000107951
0.000123341
0.000142515
0.00016599
0.000193719
0.000225415
0.000260688
0.000299059
0.000339899
0.000382453
0.000425906
0.00046941
0.00051221
0.000553631
0.000593159
0.000630418
0.000665234
0.000697576
0.000727517
0.000755203
0.00078084
0.000804649
0.000826854
0.000847657
0.000867259
0.000885887
0.000903776
0.000921162
0.000938317
0.000955603
0.000973514
0.000992461
0.00101236
0.00103269
0.00105264
0.00104133
0.00102269
0.000998593
0.000971655
0.000944249
0.000917774
0.000892333
0.000867334
0.000842272
0.000816759
0.000790483
0.000763151
0.000734476
0.00070422
0.000672245
0.000638486
0.000602983
0.000565925
0.000527662
0.000488689
0.000449617
0.00041112
0.000373916
0.000338692
0.000306049
0.00027637
0.000249871
0.000226492
0.000205979
0.000187896
0.000171722
0.000156976
0.000143177
0.000130014
0.000117324
0.000104923
9.27065e-05
8.06353e-05
6.87197e-05
5.69992e-05
4.55094e-05
3.42792e-05
2.32739e-05
1.22075e-05
3.51095e-07
4.15401e-07
1.30911e-05
2.41372e-05
3.42688e-05
4.37065e-05
5.25248e-05
6.08424e-05
6.88836e-05
7.70013e-05
8.57161e-05
9.57184e-05
0.000107831
0.000122921
0.00014177
0.000164975
0.000192853
0.000225068
0.000261123
0.000300434
0.000342335
0.000386024
0.000430588
0.000475111
0.000518737
0.000560753
0.000600639
0.000638057
0.000672852
0.000705036
0.000734752
0.000762189
0.000787574
0.000811137
0.000833102
0.000853668
0.000873009
0.0008913
0.000908747
0.000925565
0.000941968
0.000958207
0.000974603
0.000991566
0.00100935
0.00102775
0.00104617
0.00106387
0.00105845
0.00104459
0.00102406
0.000999519
0.000973645
0.000948166
0.000923411
0.000898925
0.00087431
0.000849273
0.000823588
0.000797037
0.00076938
0.000740407
0.000709946
0.000677855
0.000644053
0.000608551
0.000571497
0.000533196
0.000494086
0.000454718
0.000415759
0.000377946
0.000342024
0.000308614
0.000278211
0.000251069
0.000227189
0.000206292
0.00018793
0.000171596
0.000156726
0.000142896
0.000129828
0.00011723
0.000104906
9.27503e-05
8.0724e-05
6.88359e-05
5.71247e-05
4.56267e-05
3.43717e-05
2.33285e-05
1.22172e-05
3.50603e-07
4.12891e-07
1.30768e-05
2.41711e-05
3.43692e-05
4.38839e-05
5.27807e-05
6.11664e-05
6.92499e-05
7.73654e-05
8.60134e-05
9.5869e-05
0.000107752
0.000122545
0.000141066
0.00016396
0.000191615
0.000224116
0.000260852
0.000301073
0.000344016
0.000388809
0.000434479
0.000480032
0.000524535
0.000567214
0.000607513
0.000645121
0.000679921
0.000711961
0.000741417
0.000768546
0.000793597
0.000816822
0.000838434
0.000858632
0.000877584
0.00089544
0.000912361
0.000928546
0.000944198
0.000959524
0.000974756
0.000990167
0.00100606
0.00102251
0.00103915
0.00105537
0.00107051
0.00107171
0.00106348
0.00104736
0.00102595
0.00100217
0.000978066
0.00095423
0.000930367
0.000906189
0.000881509
0.0008562
0.000830138
0.00080316
0.000775121
0.000745875
0.000715262
0.000683122
0.000649342
0.000613898
0.000576904
0.000538584
0.000499319
0.00045962
0.000420171
0.000381716
0.000345036
0.000310842
0.000279705
0.000251943
0.00022757
0.000206309
0.00018773
0.000171238
0.000156324
0.0001426
0.000129635
0.000117127
0.000104879
9.27841e-05
8.08028e-05
6.89432e-05
5.72432e-05
4.57388e-05
3.44612e-05
2.33821e-05
1.22277e-05
3.50207e-07
4.10205e-07
1.30616e-05
2.42025e-05
3.44657e-05
4.40567e-05
5.30324e-05
6.14879e-05
6.96178e-05
7.77378e-05
8.63287e-05
9.60489e-05
0.000107712
0.000122215
0.000140405
0.000162975
0.000190356
0.0002227
0.000259856
0.000300927
0.000344855
0.000390738
0.000437519
0.000484107
0.000529519
0.00057292
0.000613703
0.000651552
0.00068639
0.000718308
0.000747515
0.000774294
0.000798948
0.00082174
0.000842891
0.000862593
0.000881003
0.000898268
0.000914527
0.00092995
0.000944738
0.000959103
0.000973248
0.000987383
0.00100172
0.00101644
0.00103141
0.00104608
0.00105983
0.00107212
0.00108056
0.00107879
0.00106795
0.00105046
0.00102942
0.0010072
0.000984636
0.000961625
0.000937999
0.000913673
0.000888626
0.000862833
0.000836237
0.000808781
0.000780388
0.000750929
0.000720222
0.000688091
0.000654391
0.000619061
0.000582138
0.000543781
0.000504319
0.000464264
0.000424271
0.000385123
0.000347653
0.000312672
0.000280815
0.000252451
0.000227612
0.000206056
0.000187267
0.000170708
0.000155909
0.0001423
0.000129436
0.000117015
0.000104842
9.28077e-05
8.0872e-05
6.9042e-05
5.73546e-05
4.58457e-05
3.45478e-05
2.34349e-05
1.2239e-05
3.50016e-07
4.07635e-07
1.30457e-05
2.42317e-05
3.45587e-05
4.42252e-05
5.32797e-05
6.18067e-05
6.99866e-05
7.81174e-05
8.66602e-05
9.6256e-05
0.00010771
0.000121928
0.000139788
0.000162025
0.000189115
0.00022124
0.000258309
0.000299917
0.000344826
0.000391759
0.000439636
0.000487277
0.000533619
0.000577775
0.000619116
0.000657286
0.000692211
0.000724038
0.000753012
0.000779439
0.000803646
0.000825926
0.000846515
0.000865594
0.000883316
0.000899816
0.000915232
0.000929716
0.000943463
0.000956702
0.000969656
0.000982528
0.000995505
0.00100873
0.00102222
0.00103557
0.0010481
0.00105915
0.00106836
0.00108455
0.00108995
0.00108524
0.0010725
0.00105492
0.00103516
0.00101434
0.00099253
0.000969688
0.000945833
0.00092105
0.000895416
0.000868986
0.00084181
0.00081391
0.000785224
0.000755612
0.000724874
0.000692811
0.000659237