/*--------------------------------*- C++ -*----------------------------------*\
  =========                 |
  \\      /  F ield         | OpenFOAM: The Open Source CFD Toolbox
   \\    /   O peration     | Website:  https://openfoam.org
    \\  /    A nd           | Version:  7
     \\/     M anipulation  |
\*---------------------------------------------------------------------------*/
FoamFile
{
    version     2.0;
    format      ascii;
    class       volScalarField;
    location    "0";
    object      p;
}
// * * * * * * * * * * * * * * * * * * * * * * * * * * * * * * * * * * * * * //

dimensions      [0 2 -2 0 0 0 0];

internalField   nonuniform List<scalar> 
10981
(
-5.11595e-05
-5.31177e-05
-5.11585e-05
-4.90439e-05
-5.48297e-05
-5.31158e-05
-5.11579e-05
-4.90436e-05
-4.6724e-05
-5.64047e-05
-5.4826e-05
-5.31122e-05
-5.11615e-05
-4.90452e-05
-4.6724e-05
-4.4331e-05
-5.77762e-05
-5.64001e-05
-5.48204e-05
-5.31132e-05
-5.11721e-05
-4.90517e-05
-4.67272e-05
-4.43321e-05
-4.17669e-05
-5.8997e-05
-5.77702e-05
-5.63923e-05
-5.48177e-05
-5.31206e-05
-5.11914e-05
-4.90651e-05
-4.67342e-05
-4.43353e-05
-4.17683e-05
-3.91468e-05
-6.00755e-05
-5.89896e-05
-5.77607e-05
-5.6386e-05
-5.48211e-05
-5.31361e-05
-5.12215e-05
-4.90875e-05
-4.6748e-05
-4.43428e-05
-4.17724e-05
-3.91492e-05
-3.64061e-05
-6.09771e-05
-6.00671e-05
-5.89765e-05
-5.77524e-05
-5.6385e-05
-5.48327e-05
-5.31629e-05
-5.12648e-05
-4.91209e-05
-4.67711e-05
-4.43563e-05
-4.17813e-05
-3.91543e-05
-3.64102e-05
-3.35349e-05
-6.16553e-05
-6.09669e-05
-6.00538e-05
-5.89665e-05
-5.77485e-05
-5.63914e-05
-5.48541e-05
-5.32027e-05
-5.13234e-05
-4.91673e-05
-4.68044e-05
-4.4378e-05
-4.17961e-05
-3.91644e-05
-3.64208e-05
-3.35415e-05
-3.05671e-05
-6.22068e-05
-6.16429e-05
-6.09508e-05
-6.00429e-05
-5.89623e-05
-5.77526e-05
-5.64068e-05
-5.48886e-05
-5.32574e-05
-5.13994e-05
-4.92287e-05
-4.68505e-05
-4.4411e-05
-4.18193e-05
-3.91816e-05
-3.64349e-05
-3.35547e-05
-3.05765e-05
-2.7558e-05
-6.25341e-05
-6.21939e-05
-6.16241e-05
-6.0937e-05
-6.00367e-05
-5.8965e-05
-5.77675e-05
-5.64359e-05
-5.49377e-05
-5.33298e-05
-5.14948e-05
-4.93072e-05
-4.69119e-05
-4.4456e-05
-4.18542e-05
-3.92072e-05
-3.64555e-05
-3.35736e-05
-3.05938e-05
-2.75709e-05
-2.44536e-05
-6.27549e-05
-6.25194e-05
-6.21736e-05
-6.16083e-05
-6.09286e-05
-6.00377e-05
-5.89761e-05
-5.77931e-05
-5.64798e-05
-5.50041e-05
-5.34213e-05
-5.16115e-05
-4.94047e-05
-4.69895e-05
-4.45164e-05
-4.19005e-05
-3.9242e-05
-3.6485e-05
-3.36e-05
-3.06174e-05
-2.75928e-05
-2.44695e-05
-2.13794e-05
-6.27862e-05
-6.27401e-05
-6.24979e-05
-6.21544e-05
-6.1598e-05
-6.09279e-05
-6.00495e-05
-5.90002e-05
-5.78345e-05
-5.65412e-05
-5.50908e-05
-5.3535e-05
-5.17519e-05
-4.95232e-05
-4.70861e-05
-4.45933e-05
-4.19613e-05
-3.9291e-05
-3.65268e-05
-3.36362e-05
-3.06493e-05
-2.76208e-05
-2.44958e-05
-2.13999e-05
-1.82314e-05
-6.26705e-05
-6.27708e-05
-6.27163e-05
-6.24784e-05
-6.21397e-05
-6.15951e-05
-6.09356e-05
-6.00733e-05
-5.90391e-05
-5.78942e-05
-5.6622e-05
-5.51991e-05
-5.36727e-05
-5.19183e-05
-4.96649e-05
-4.72026e-05
-4.46877e-05
-4.2038e-05
-3.93535e-05
-3.658e-05
-3.36821e-05
-3.06906e-05
-2.76562e-05
-2.45302e-05
-2.14296e-05
-1.82548e-05
-1.51101e-05
-6.24275e-05
-6.26547e-05
-6.27468e-05
-6.26924e-05
-6.24645e-05
-6.21314e-05
-6.16032e-05
-6.09553e-05
-6.0112e-05
-5.90952e-05
-5.79733e-05
-5.67259e-05
-5.53315e-05
-5.38374e-05
-5.2114e-05
-4.98322e-05
-4.73418e-05
-4.48028e-05
-4.21331e-05
-3.94306e-05
-3.66472e-05
-3.37409e-05
-3.07444e-05
-2.77018e-05
-2.45741e-05
-2.14673e-05
-1.82904e-05
-1.51372e-05
-1.20125e-05
-6.20366e-05
-6.24114e-05
-6.26293e-05
-6.27234e-05
-6.26735e-05
-6.24577e-05
-6.21316e-05
-6.16237e-05
-6.09906e-05
-6.0168e-05
-5.91719e-05
-5.80747e-05
-5.68555e-05
-5.54907e-05
-5.40314e-05
-5.23425e-05
-5.00275e-05
-4.75055e-05
-4.49401e-05
-4.22469e-05
-3.95256e-05
-3.67302e-05
-3.3813e-05
-3.08112e-05
-2.77581e-05
-2.46287e-05
-2.15125e-05
-1.83353e-05
-1.51766e-05
-1.20424e-05
-8.92669e-06
-6.15232e-05
-6.20213e-05
-6.23836e-05
-6.26039e-05
-6.27039e-05
-6.26612e-05
-6.24611e-05
-6.21448e-05
-6.16575e-05
-6.10434e-05
-6.02442e-05
-5.92716e-05
-5.82012e-05
-5.70127e-05
-5.56811e-05
-5.42577e-05
-5.26078e-05
-5.02543e-05
-4.76974e-05
-4.51019e-05
-4.23811e-05
-3.96396e-05
-3.68291e-05
-3.39003e-05
-3.08906e-05
-2.78263e-05
-2.4696e-05
-2.15693e-05
-1.83887e-05
-1.52244e-05
-1.20851e-05
-8.95912e-06
-5.89775e-06
-6.09009e-05
-6.15074e-05
-6.19963e-05
-6.23564e-05
-6.2583e-05
-6.26909e-05
-6.26582e-05
-6.24756e-05
-6.2175e-05
-6.17092e-05
-6.11163e-05
-6.03426e-05
-5.93964e-05
-5.83554e-05
-5.72004e-05
-5.59064e-05
-5.45218e-05
-5.29151e-05
-5.05171e-05
-4.79214e-05
-4.52898e-05
-4.25386e-05
-3.97739e-05
-3.69454e-05
-3.40035e-05
-3.09846e-05
-2.79102e-05
-2.47752e-05
-2.16368e-05
-1.84527e-05
-1.52825e-05
-1.2136e-05
-9.00814e-06
-5.93343e-06
-2.92741e-06
-6.01413e-05
-6.08857e-05
-6.14812e-05
-6.19695e-05
-6.23336e-05
-6.25692e-05
-6.26865e-05
-6.2668e-05
-6.25036e-05
-6.22224e-05
-6.17816e-05
-6.12119e-05
-6.04661e-05
-5.95492e-05
-5.85409e-05
-5.74215e-05
-5.617e-05
-5.48285e-05
-5.32702e-05
-5.08206e-05
-4.81805e-05
-4.5507e-05
-4.27219e-05
-3.99302e-05
-3.70813e-05
-3.41237e-05
-3.10936e-05
-2.80081e-05
-2.48653e-05
-2.17176e-05
-1.85284e-05
-1.53516e-05
-1.21969e-05
-9.06468e-06
-5.9822e-06
-2.96616e-06
-1.4589e-18
-5.93014e-05
-6.01271e-05
-6.08579e-05
-6.14527e-05
-6.19456e-05
-6.23157e-05
-6.25641e-05
-6.26933e-05
-6.26929e-05
-6.25494e-05
-6.22892e-05
-6.18764e-05
-6.13335e-05
-6.06178e-05
-5.97331e-05
-5.87616e-05
-5.76813e-05
-5.64764e-05
-5.51832e-05
-5.36796e-05
-5.1171e-05
-4.84795e-05
-4.57579e-05
-4.29353e-05
-4.01111e-05
-3.7238e-05
-3.42625e-05
-3.12188e-05
-2.81203e-05
-2.49692e-05
-2.18117e-05
-1.86153e-05
-1.54317e-05
-1.22677e-05
-9.12977e-06
-6.04142e-06
-3.01788e-06
-4.05749e-08
2.82134e-06
-5.83517e-05
-5.92871e-05
-6.01022e-05
-6.08288e-05
-6.1428e-05
-6.19277e-05
-6.2306e-05
-6.25702e-05
-6.27154e-05
-6.27348e-05
-6.26161e-05
-6.23796e-05
-6.19957e-05
-6.14825e-05
-6.08008e-05
-5.99518e-05
-5.90209e-05
-5.79852e-05
-5.68321e-05
-5.55935e-05
-5.41508e-05
-5.15749e-05
-4.8825e-05
-4.60486e-05
-4.31817e-05
-4.03192e-05
-3.74181e-05
-3.44209e-05
-3.13606e-05
-2.82475e-05
-2.5088e-05
-2.19189e-05
-1.87142e-05
-1.5524e-05
-1.23497e-05
-9.20563e-06
-6.10988e-06
-3.07907e-06
-9.7676e-08
2.77864e-06
5.58053e-06
-5.73068e-05
-5.83391e-05
-5.92601e-05
-6.00742e-05
-6.08025e-05
-6.14083e-05
-6.19183e-05
-6.23089e-05
-6.259e-05
-6.27557e-05
-6.27964e-05
-6.27047e-05
-6.24962e-05
-6.21443e-05
-6.16621e-05
-6.10184e-05
-6.02101e-05
-5.93243e-05
-5.83388e-05
-5.7243e-05
-5.60659e-05
-5.46919e-05
-5.20398e-05
-4.92224e-05
-4.63835e-05
-4.34654e-05
-4.05597e-05
-3.7625e-05
-3.46012e-05
-3.15217e-05
-2.8392e-05
-2.52201e-05
-2.20379e-05
-1.88253e-05
-1.56267e-05
-1.24433e-05
-9.29303e-06
-6.18858e-06
-3.14913e-06
-1.63191e-07
2.72191e-06
5.53629e-06
8.24088e-06
-5.61926e-05
-5.72945e-05
-5.83136e-05
-5.92307e-05
-6.00487e-05
-6.07806e-05
-6.13963e-05
-6.19185e-05
-6.23263e-05
-6.2626e-05
-6.28153e-05
-6.28815e-05
-6.2818e-05
-6.26403e-05
-6.23247e-05
-6.18773e-05
-6.12747e-05
-6.05128e-05
-5.96766e-05
-5.87492e-05
-5.77169e-05
-5.66091e-05
-5.53114e-05
-5.2574e-05
-4.96798e-05
-4.67701e-05
-4.37918e-05
-4.08356e-05
-3.78613e-05
-3.48065e-05
-3.17046e-05
-2.85532e-05
-2.53661e-05
-2.21709e-05
-1.89493e-05
-1.57393e-05
-1.25474e-05
-9.3891e-06
-6.27637e-06
-3.22902e-06
-2.36595e-07
2.65657e-06
5.47511e-06
8.19555e-06
1.07939e-05
-5.4981e-05
-5.61815e-05
-5.72698e-05
-5.82849e-05
-5.92031e-05
-6.00284e-05
-6.07662e-05
-6.13955e-05
-6.1932e-05
-6.23607e-05
-6.26822e-05
-6.28968e-05
-6.29918e-05
-6.29592e-05
-6.28148e-05
-6.25392e-05
-6.21319e-05
-6.15742e-05
-6.08655e-05
-6.00848e-05
-5.92224e-05
-5.82619e-05
-5.7231e-05
-5.60182e-05
-5.31853e-05
-5.02046e-05
-4.72147e-05
-4.41669e-05
-4.11534e-05
-3.81312e-05
-3.50405e-05
-3.19098e-05
-2.87331e-05
-2.55291e-05
-2.23178e-05
-1.90838e-05
-1.58627e-05
-1.26623e-05
-9.49424e-06
-6.37426e-06
-3.31858e-06
-3.20568e-07
2.58169e-06
5.40678e-06
8.13391e-06
1.0747e-05
1.32607e-05
-5.37032e-05
-5.49708e-05
-5.61566e-05
-5.72422e-05
-5.82585e-05
-5.91795e-05
-6.00146e-05
-6.0762e-05
-6.14082e-05
-6.19621e-05
-6.24142e-05
-6.27609e-05
-6.30035e-05
-6.31298e-05
-6.3132e-05
-6.30236e-05
-6.27917e-05
-6.24305e-05
-6.19234e-05
-6.12742e-05
-6.05575e-05
-5.97662e-05
-5.88868e-05
-5.79405e-05
-5.68211e-05
-5.38827e-05
-5.0806e-05
-4.7725e-05
-4.45993e-05
-4.1519e-05
-3.84403e-05
-3.53078e-05
-3.2141e-05
-2.8935e-05
-2.57103e-05
-2.24796e-05
-1.92306e-05
-1.59972e-05
-1.27858e-05
-9.60804e-06
-6.48142e-06
-3.41601e-06
-4.12344e-07
2.49948e-06
5.32987e-06
8.06291e-06
1.06844e-05
1.32135e-05
1.56004e-05
-5.23778e-05
-5.36941e-05
-5.49475e-05
-5.61277e-05
-5.72168e-05
-5.8236e-05
-5.91632e-05
-6.00108e-05
-6.07713e-05
-6.14368e-05
-6.20109e-05
-6.24884e-05
-6.28636e-05
-6.31374e-05
-6.32983e-05
-6.33396e-05
-6.32721e-05
-6.30877e-05
-6.27788e-05
-6.23293e-05
-6.17458e-05
-6.11018e-05
-6.03894e-05
-5.95996e-05
-5.87466e-05
-5.7729e-05
-5.46745e-05
-5.14919e-05
-4.83088e-05
-4.50959e-05
-4.19378e-05
-3.87952e-05
-3.56124e-05
-3.24032e-05
-2.91631e-05
-2.59121e-05
-2.26568e-05
-1.93901e-05
-1.61416e-05
-1.29177e-05
-9.72954e-06
-6.59496e-06
-3.5209e-06
-5.12147e-07
2.40834e-06
5.24453e-06
7.98511e-06
1.06142e-05
1.31489e-05
1.55524e-05
1.78296e-05
-5.09602e-05
-5.23694e-05
-5.36731e-05
-5.4921e-05
-5.61e-05
-5.7195e-05
-5.82204e-05
-5.91568e-05
-6.00193e-05
-6.07968e-05
-6.14843e-05
-6.20817e-05
-6.25868e-05
-6.2993e-05
-6.33008e-05
-6.35006e-05
-6.3585e-05
-6.35648e-05
-6.34323e-05
-6.31827e-05
-6.27982e-05
-6.22883e-05
-6.17257e-05
-6.11016e-05
-6.04094e-05
-5.96581e-05
-5.87508e-05
-5.55701e-05
-5.22711e-05
-4.89752e-05
-4.56644e-05
-4.24174e-05
-3.92024e-05
-3.59595e-05
-3.27002e-05
-2.94204e-05
-2.61359e-05
-2.28517e-05
-1.95641e-05
-1.62973e-05
-1.30587e-05
-9.8592e-06
-6.71529e-06
-3.63183e-06
-6.16818e-07
2.31085e-06
5.15182e-06
7.89932e-06
1.0537e-05
1.3077e-05
1.5488e-05
1.7781e-05
1.99575e-05
-4.95182e-05
-5.09521e-05
-5.23471e-05
-5.3647e-05
-5.48959e-05
-5.60759e-05
-5.71779e-05
-5.82135e-05
-5.91628e-05
-6.00425e-05
-6.08401e-05
-6.15525e-05
-6.21766e-05
-6.27124e-05
-6.31534e-05
-6.34976e-05
-6.37403e-05
-6.38729e-05
-6.39065e-05
-6.38323e-05
-6.36493e-05
-6.33384e-05
-6.29103e-05
-6.2437e-05
-6.19111e-05
-6.13253e-05
-6.06846e-05
-5.98949e-05
-5.6578e-05
-5.31518e-05
-4.97324e-05
-4.63117e-05
-4.29659e-05
-3.96684e-05
-3.63565e-05
-3.30383e-05
-2.97115e-05
-2.63859e-05
-2.30682e-05
-1.97541e-05
-1.64656e-05
-1.32089e-05
-9.99582e-06
-6.84073e-06
-3.74783e-06
-7.26633e-07
2.20857e-06
5.05448e-06
7.80769e-06
1.04525e-05
1.29976e-05
1.54162e-05
1.77184e-05
1.991e-05
2.19446e-05
-4.8005e-05
-4.95119e-05
-5.09308e-05
-5.23202e-05
-5.36216e-05
-5.48736e-05
-5.60583e-05
-5.71705e-05
-5.82184e-05
-5.91841e-05
-6.00835e-05
-6.09035e-05
-6.16425e-05
-6.2297e-05
-6.28656e-05
-6.33468e-05
-6.37326e-05
-6.40222e-05
-6.4209e-05
-6.43031e-05
-6.42951e-05
-6.41861e-05
-6.39577e-05
-6.3621e-05
-6.32453e-05
-6.28266e-05
-6.23559e-05
-6.18341e-05
-6.11703e-05
-5.77063e-05
-5.41421e-05
-5.05879e-05
-4.70462e-05
-4.35919e-05
-4.02005e-05
-3.68091e-05
-3.34239e-05
-3.00413e-05
-2.66666e-05
-2.33094e-05
-1.99633e-05
-1.66479e-05
-1.33681e-05
-1.01384e-05
-6.9703e-06
-3.86719e-06
-8.3897e-07
2.10199e-06
4.95286e-06
7.71166e-06
1.03623e-05
1.29118e-05
1.5339e-05
1.76477e-05
1.98462e-05
2.1898e-05
2.38325e-05
-4.64707e-05
-4.79978e-05
-4.94917e-05
-5.09062e-05
-5.22942e-05
-5.35984e-05
-5.48573e-05
-5.60489e-05
-5.71753e-05
-5.8238e-05
-5.92229e-05
-6.01446e-05
-6.09901e-05
-6.17576e-05
-6.24463e-05
-6.30503e-05
-6.35751e-05
-6.40093e-05
-6.43515e-05
-6.45996e-05
-6.47612e-05
-6.48277e-05
-6.48011e-05
-6.46648e-05
-6.44287e-05
-6.41596e-05
-6.38569e-05
-6.35104e-05
-6.31157e-05
-6.25864e-05
-5.89634e-05
-5.52498e-05
-5.15496e-05
-4.78759e-05
-4.43015e-05
-4.0805e-05
-3.73244e-05
-3.38632e-05
-3.04153e-05
-2.69835e-05
-2.35789e-05
-2.0194e-05
-1.68448e-05
-1.35378e-05
-1.02898e-05
-7.10486e-06
-3.99071e-06
-9.53955e-07
1.99438e-06
4.84991e-06
7.61246e-06
1.02677e-05
1.28217e-05
1.5255e-05
1.75709e-05
1.97755e-05
2.18346e-05
2.37878e-05
2.55743e-05
-4.48818e-05
-4.64648e-05
-4.79783e-05
-4.94662e-05
-5.08821e-05
-5.22714e-05
-5.35803e-05
-5.48491e-05
-5.60509e-05
-5.71932e-05
-5.82739e-05
-5.92807e-05
-6.02274e-05
-6.11014e-05
-6.19007e-05
-6.2627e-05
-6.32713e-05
-6.38433e-05
-6.43323e-05
-6.47344e-05
-6.50508e-05
-6.52883e-05
-6.54383e-05
-6.55027e-05
-6.54676e-05
-6.53419e-05
-6.51886e-05
-6.50106e-05
-6.47977e-05
-6.4539e-05
-6.41527e-05
-6.03588e-05
-5.64833e-05
-5.26242e-05
-4.88072e-05
-4.51014e-05
-4.14886e-05
-3.79089e-05
-3.43621e-05
-3.08393e-05
-2.7342e-05
-2.38811e-05
-2.04497e-05
-1.70601e-05
-1.37219e-05
-1.04505e-05
-7.24406e-06
-4.1164e-06
-1.06909e-06
1.88691e-06
4.74709e-06
7.51366e-06
1.01733e-05
1.27293e-05
1.51679e-05
1.74887e-05
1.96994e-05
2.17665e-05
2.37273e-05
2.55304e-05
2.72162e-05
-4.32688e-05
-4.48759e-05
-4.64442e-05
-4.79554e-05
-4.94413e-05
-5.08609e-05
-5.22531e-05
-5.35705e-05
-5.4851e-05
-5.60676e-05
-5.72277e-05
-5.83288e-05
-5.93599e-05
-6.03337e-05
-6.12388e-05
-6.20738e-05
-6.28415e-05
-6.35324e-05
-6.41567e-05
-6.47071e-05
-6.51772e-05
-6.55703e-05
-6.58918e-05
-6.61351e-05
-6.63e-05
-6.63748e-05
-6.63697e-05
-6.6341e-05
-6.62966e-05
-6.62267e-05
-6.61134e-05
-6.58795e-05
-6.19014e-05
-5.78509e-05
-5.38195e-05
-4.98471e-05
-4.59979e-05
-4.2258e-05
-3.85691e-05
-3.49266e-05
-3.13189e-05
-2.77472e-05
-2.42212e-05
-2.07348e-05
-1.72974e-05
-1.39221e-05
-1.062e-05
-7.38871e-06
-4.24443e-06
-1.18423e-06
1.78016e-06
4.64586e-06
7.41614e-06
1.00788e-05
1.26364e-05
1.50798e-05
1.7403e-05
1.96188e-05
2.16932e-05
2.36592e-05
2.54719e-05
2.71747e-05
2.87229e-05
-4.16339e-05
-4.32638e-05
-4.48582e-05
-4.64192e-05
-4.79313e-05
-4.94171e-05
-5.08443e-05
-5.22425e-05
-5.35717e-05
-5.48656e-05
-5.61002e-05
-5.72803e-05
-5.84042e-05
-5.94628e-05
-6.04658e-05
-6.14056e-05
-6.228e-05
-6.30934e-05
-6.38375e-05
-6.45212e-05
-6.51399e-05
-6.56866e-05
-6.6166e-05
-6.65806e-05
-6.69262e-05
-6.72017e-05
-6.73959e-05
-6.752e-05
-6.76258e-05
-6.77238e-05
-6.78065e-05
-6.78489e-05
-6.77771e-05
-6.36019e-05
-5.93609e-05
-5.5143e-05
-5.1002e-05
-4.69973e-05
-4.31183e-05
-3.93109e-05
-3.5562e-05
-3.18594e-05
-2.82043e-05
-2.46038e-05
-2.10532e-05
-1.75606e-05
-1.41404e-05
-1.08006e-05
-7.54068e-06
-4.37527e-06
-1.29983e-06
1.67518e-06
4.54803e-06
7.3223e-06
9.98766e-06
1.25473e-05
1.49921e-05
1.73178e-05
1.95364e-05
2.16168e-05
2.3587e-05
2.5409e-05
2.71171e-05
2.86828e-05
3.01282e-05
-3.99293e-05
-4.16278e-05
-4.32469e-05
-4.48357e-05
-4.6395e-05
-4.79092e-05
-4.93964e-05
-5.08338e-05
-5.22418e-05
-5.35862e-05
-5.48954e-05
-5.61503e-05
-5.73529e-05
-5.85016e-05
-5.95907e-05
-6.0626e-05
-6.16048e-05
-6.25233e-05
-6.33878e-05
-6.41916e-05
-6.49428e-05
-6.56377e-05
-6.62702e-05
-6.68451e-05
-6.73633e-05
-6.78206e-05
-6.8216e-05
-6.85398e-05
-6.88021e-05
-6.90512e-05
-6.93014e-05
-6.95471e-05
-6.97555e-05
-6.98566e-05
-6.54702e-05
-6.10238e-05
-5.66032e-05
-5.22794e-05
-4.81048e-05
-4.4076e-05
-4.0138e-05
-3.62727e-05
-3.24663e-05
-2.87179e-05
-2.50325e-05
-2.1409e-05
-1.78532e-05
-1.43798e-05
-1.09956e-05
-7.70168e-06
-4.50976e-06
-1.415e-06
1.57285e-06
4.45503e-06
7.23398e-06
9.90192e-06
1.24629e-05
1.49076e-05
1.72349e-05
1.94541e-05
2.15394e-05
2.35119e-05
2.53414e-05
2.7054e-05
2.86284e-05
3.00906e-05
3.14229e-05
-3.82203e-05
-3.99231e-05
-4.16092e-05
-4.32242e-05
-4.48113e-05
-4.6372e-05
-4.78916e-05
-4.93836e-05
-5.08329e-05
-5.22526e-05
-5.36158e-05
-5.49429e-05
-5.62197e-05
-5.74471e-05
-5.86232e-05
-5.97453e-05
-6.08169e-05
-6.18391e-05
-6.2808e-05
-6.37295e-05
-6.46006e-05
-6.54278e-05
-6.6208e-05
-6.69363e-05
-6.76158e-05
-6.82475e-05
-6.88269e-05
-6.93518e-05
-6.98145e-05
-7.02248e-05
-7.06259e-05
-7.10383e-05
-7.14576e-05
-7.18438e-05
-7.21292e-05
-6.75172e-05
-6.28492e-05
-5.82088e-05
-5.36856e-05
-4.93277e-05
-4.51355e-05
-4.10551e-05
-3.70629e-05
-3.31419e-05
-2.92899e-05
-2.55118e-05
-2.18064e-05
-1.81784e-05
-1.46429e-05
-1.12073e-05
-7.87292e-06
-4.64856e-06
-1.5294e-06
1.47403e-06
4.36777e-06
7.1519e-06
9.82337e-06
1.23851e-05
1.48296e-05
1.71575e-05
1.93761e-05
2.1463e-05
2.34354e-05
2.52711e-05
2.69892e-05
2.8569e-05
3.00402e-05
3.13883e-05
3.25768e-05
-3.64973e-05
-3.82144e-05
-3.99031e-05
-4.15864e-05
-4.32013e-05
-4.47872e-05
-4.63507e-05
-4.78799e-05
-4.93804e-05
-5.08447e-05
-5.2278e-05
-5.36619e-05
-5.50093e-05
-5.63098e-05
-5.7564e-05
-5.87711e-05
-5.99288e-05
-6.1042e-05
-6.21121e-05
-6.31384e-05
-6.41243e-05
-6.50708e-05
-6.59834e-05
-6.68584e-05
-6.76924e-05
-6.84869e-05
-6.92418e-05
-6.99534e-05
-7.06176e-05
-7.12283e-05
-7.17961e-05
-7.23588e-05
-7.29435e-05
-7.35482e-05
-7.4124e-05
-7.4606e-05
-6.97555e-05
-6.48484e-05
-5.99693e-05
-5.52298e-05
-5.06718e-05
-4.63013e-05
-4.20665e-05
-3.79357e-05
-3.38894e-05
-2.99244e-05
-2.60437e-05
-2.22467e-05
-1.85385e-05
-1.49327e-05
-1.14377e-05
-8.05577e-06
-4.79257e-06
-1.64483e-06
1.37847e-06
4.28639e-06
7.07814e-06
9.75393e-06
1.23164e-05
1.47605e-05
1.70878e-05
1.93037e-05
2.13908e-05
2.33626e-05
2.52025e-05
2.69223e-05
2.85056e-05
2.99839e-05
3.13402e-05
3.25446e-05
3.36351e-05
-3.4747e-05
-3.64917e-05
-3.81955e-05
-3.9877e-05
-4.15613e-05
-4.31791e-05
-4.47668e-05
-4.63345e-05
-4.78757e-05
-4.93878e-05
-5.08696e-05
-5.23195e-05
-5.37251e-05
-5.50954e-05
-5.64221e-05
-5.77058e-05
-5.89473e-05
-6.01447e-05
-6.13052e-05
-6.24293e-05
-6.35194e-05
-6.45791e-05
-6.56093e-05
-6.66168e-05
-6.75968e-05
-6.85464e-05
-6.94663e-05
-7.03546e-05
-7.12079e-05
-7.20212e-05
-7.27895e-05
-7.35243e-05
-7.42579e-05
-7.50258e-05
-7.58278e-05
-7.66061e-05
-7.72971e-05
-7.21958e-05
-6.70333e-05
-6.18962e-05
-5.69202e-05
-5.21449e-05
-4.758e-05
-4.31764e-05
-3.88941e-05
-3.47108e-05
-3.06223e-05
-2.66294e-05
-2.27314e-05
-1.89346e-05
-1.52504e-05
-1.16887e-05
-8.25192e-06
-4.94349e-06
-1.76232e-06
1.28699e-06
4.21113e-06
7.01397e-06
9.69518e-06
1.22592e-05
1.4703e-05
1.70287e-05
1.92404e-05
2.13271e-05
2.32957e-05
2.5137e-05
2.6856e-05
2.8441e-05
2.99255e-05
3.12904e-05
3.24996e-05
3.36049e-05
3.45844e-05
-3.29759e-05
-3.47414e-05
-3.64733e-05
-3.81708e-05
-3.98488e-05
-4.1536e-05
-4.31581e-05
-4.47523e-05
-4.63274e-05
-4.78816e-05
-4.94087e-05
-5.09092e-05
-5.23784e-05
-5.38069e-05
-5.52024e-05
-5.65577e-05
-5.78751e-05
-5.91541e-05
-6.03967e-05
-6.16103e-05
-6.27962e-05
-6.39577e-05
-6.50999e-05
-6.62239e-05
-6.73355e-05
-6.8431e-05
-6.95068e-05
-7.0562e-05
-7.15938e-05
-7.25984e-05
-7.35701e-05
-7.45058e-05
-7.54168e-05
-7.63309e-05
-7.72931e-05
-7.83049e-05
-7.92992e-05
-8.02123e-05
-7.48496e-05
-6.94147e-05
-6.39995e-05
-5.87673e-05
-5.37548e-05
-4.89782e-05
-4.43901e-05
-3.99416e-05
-3.56092e-05
-3.13849e-05
-2.7269e-05
-2.32614e-05
-1.93666e-05
-1.55966e-05
-1.19608e-05
-8.46101e-06
-5.10185e-06
-1.88151e-06
1.1989e-06
4.14363e-06
6.96003e-06
9.64866e-06
1.22157e-05
1.46589e-05
1.6982e-05
1.91894e-05
2.12733e-05
2.32373e-05
2.50772e-05
2.6793e-05
2.83787e-05
2.98673e-05
3.12381e-05
3.24514e-05
3.35627e-05
3.4556e-05
3.54324e-05
-3.11881e-05
-3.29703e-05
-3.47231e-05
-3.64491e-05
-3.81432e-05
-3.98199e-05
-4.15133e-05
-4.31402e-05
-4.47447e-05
-4.63317e-05
-4.79002e-05
-4.94446e-05
-5.09655e-05
-5.24562e-05
-5.3909e-05
-5.53319e-05
-5.67184e-05
-5.80736e-05
-5.93955e-05
-6.06889e-05
-6.19622e-05
-6.32182e-05
-6.44599e-05
-6.56936e-05
-6.69214e-05
-6.81473e-05
-6.93687e-05
-7.05809e-05
-7.17814e-05
-7.29665e-05
-7.41319e-05
-7.52715e-05
-7.63838e-05
-7.74802e-05
-7.85847e-05
-7.97524e-05
-8.09871e-05
-8.22114e-05
-8.33608e-05
-7.77276e-05
-7.20045e-05
-6.62911e-05
-6.07812e-05
-5.55115e-05
-5.05032e-05
-4.57133e-05
-4.10831e-05
-3.6586e-05
-3.22132e-05
-2.79628e-05
-2.3835e-05
-1.98336e-05
-1.59697e-05
-1.22524e-05
-8.68369e-06
-5.26753e-06
-2.0008e-06
1.11451e-06
4.08414e-06
6.9171e-06
9.61687e-06
1.21871e-05
1.46307e-05
1.69505e-05
1.91536e-05
2.12323e-05
2.31905e-05
2.50266e-05
2.67379e-05
2.83225e-05
2.98107e-05
3.11852e-05
3.24023e-05
3.35177e-05
3.45162e-05
3.5406e-05
3.61789e-05
-2.93857e-05
-3.11826e-05
-3.2952e-05
-3.46989e-05
-3.64221e-05
-3.81142e-05
-3.97918e-05
-4.14952e-05
-4.31284e-05
-4.47445e-05
-4.63477e-05
-4.79327e-05
-4.94962e-05
-5.10384e-05
-5.25529e-05
-5.40325e-05
-5.54856e-05
-5.69074e-05
-5.8304e-05
-5.96752e-05
-6.10263e-05
-6.23666e-05
-6.37013e-05
-6.50328e-05
-6.63676e-05
-6.7709e-05
-6.90595e-05
-7.04165e-05
-7.17753e-05
-7.3131e-05
-7.44788e-05
-7.58143e-05
-7.71311e-05
-7.84288e-05
-7.972e-05
-8.10246e-05
-8.24095e-05
-8.38809e-05
-8.53495e-05
-8.67502e-05
-8.084e-05
-7.48139e-05
-6.87818e-05
-6.29729e-05
-5.74239e-05
-5.21634e-05
-4.71526e-05
-4.23222e-05
-3.76448e-05
-3.31078e-05
-2.87097e-05
-2.44505e-05
-2.0333e-05
-1.6367e-05
-1.25608e-05
-8.91725e-06
-5.43815e-06
-2.12038e-06
1.03437e-06
4.03381e-06
6.88724e-06
9.60004e-06
1.21754e-05
1.46205e-05
1.69374e-05
1.91358e-05
2.12082e-05
2.3159e-05
2.49887e-05
2.66945e-05
2.82738e-05
2.97589e-05
3.11364e-05
3.23539e-05
3.34719e-05
3.44739e-05
3.53685e-05
3.61543e-05
3.68272e-05
-2.75717e-05
-2.93802e-05
-3.11646e-05
-3.29279e-05
-3.46719e-05
-3.63935e-05
-3.80856e-05
-3.97665e-05
-4.14831e-05
-4.31261e-05
-4.47551e-05
-4.63764e-05
-4.79793e-05
-4.95647e-05
-5.11289e-05
-5.26692e-05
-5.41785e-05
-5.56656e-05
-5.71281e-05
-5.8571e-05
-5.99983e-05
-6.14149e-05
-6.28303e-05
-6.42521e-05
-6.5683e-05
-6.7129e-05
-6.85935e-05
-7.00785e-05
-7.1581e-05
-7.30959e-05
-7.4616e-05
-7.61357e-05
-7.76501e-05
-7.91528e-05
-8.06449e-05
-8.21406e-05
-8.36544e-05
-8.52685e-05
-8.69911e-05
-8.87196e-05
-9.03865e-05
-8.4196e-05
-7.78536e-05
-7.1483e-05
-6.53529e-05
-5.95026e-05
-5.39678e-05
-4.87157e-05
-4.36661e-05
-3.87891e-05
-3.40717e-05
-2.95104e-05
-2.51064e-05
-2.0862e-05
-1.67848e-05
-1.28826e-05
-9.15761e-06
-5.61022e-06
-2.23744e-06
9.6087e-07
3.99426e-06
6.8717e-06
9.59946e-06
1.21833e-05
1.46308e-05
1.69456e-05
1.91383e-05
2.12031e-05
2.31452e-05
2.49669e-05
2.66649e-05
2.82355e-05
2.97156e-05
3.10943e-05
3.23088e-05
3.34274e-05
3.44311e-05
3.53288e-05
3.61191e-05
3.68044e-05
3.73794e-05
-2.57476e-05
-2.75663e-05
-2.93625e-05
-3.11406e-05
-3.29007e-05
-3.46427e-05
-3.63648e-05
-3.80592e-05
-3.97467e-05
-4.14781e-05
-4.31341e-05
-4.47785e-05
-4.64191e-05
-4.80409e-05
-4.96499e-05
-5.12388e-05
-5.2807e-05
-5.43498e-05
-5.58746e-05
-5.73832e-05
-5.88794e-05
-6.03696e-05
-6.18603e-05
-6.33602e-05
-6.48776e-05
-6.64172e-05
-6.79839e-05
-6.95811e-05
-7.121e-05
-7.28669e-05
-7.4547e-05
-7.62405e-05
-7.79404e-05
-7.9642e-05
-8.13389e-05
-8.3034e-05
-8.47433e-05
-8.64765e-05
-8.83313e-05
-9.03208e-05
-9.23258e-05
-9.4274e-05
-8.78035e-05
-8.11333e-05
-7.44049e-05
-6.79325e-05
-6.17579e-05
-5.59265e-05
-5.04105e-05
-4.51211e-05
-4.00244e-05
-3.5107e-05
-3.03656e-05
-2.58015e-05
-2.14172e-05
-1.72182e-05
-1.3212e-05
-9.39912e-06
-5.77873e-06
-2.34714e-06
8.98438e-07
3.96913e-06
6.8731e-06
9.61822e-06
1.22129e-05
1.46638e-05
1.69772e-05
1.91639e-05
2.12202e-05
2.31533e-05
2.49638e-05
2.66515e-05
2.82112e-05
2.96849e-05
3.10614e-05
3.22702e-05
3.33868e-05
3.439e-05
3.5289e-05
3.60819e-05
3.67715e-05
3.73583e-05
3.78392e-05
-2.39167e-05
-2.57422e-05
-2.75487e-05
-2.93386e-05
-3.11133e-05
-3.28712e-05
-3.46132e-05
-3.63379e-05
-3.8037e-05
-3.97341e-05
-4.14816e-05
-4.3153e-05
-4.48151e-05
-4.64758e-05
-4.8119e-05
-4.97521e-05
-5.13683e-05
-5.29676e-05
-5.45486e-05
-5.61165e-05
-5.76773e-05
-5.92343e-05
-6.07954e-05
-6.23683e-05
-6.39618e-05
-6.55842e-05
-6.72414e-05
-6.89377e-05
-7.06765e-05
-7.24577e-05
-7.42776e-05
-7.6131e-05
-7.80062e-05
-7.98943e-05
-8.17909e-05
-8.369e-05
-8.55962e-05
-8.75281e-05
-8.94909e-05
-9.15994e-05
-9.3871e-05
-9.61695e-05
-9.84161e-05
-9.16686e-05
-8.46619e-05
-7.75575e-05
-7.07219e-05
-6.41993e-05
-5.80477e-05
-5.22467e-05
-4.66938e-05
-4.13559e-05
-3.62178e-05
-3.12763e-05
-2.65353e-05
-2.19962e-05
-1.76638e-05
-1.35437e-05
-9.6362e-06
-5.93769e-06
-2.44345e-06
8.5334e-07
3.96343e-06
6.89545e-06
9.66044e-06
1.22675e-05
1.47222e-05
1.70358e-05
1.92164e-05
2.12637e-05
2.31862e-05
2.49832e-05
2.66589e-05
2.82056e-05
2.96702e-05
3.10405e-05
3.22412e-05
3.33533e-05
3.43534e-05
3.52513e-05
3.6045e-05
3.67367e-05
3.73275e-05
3.78197e-05
3.82078e-05
-2.20817e-05
-2.39113e-05
-2.57249e-05
-2.75249e-05
-2.93113e-05
-3.10835e-05
-3.28407e-05
-3.45849e-05
-3.63145e-05
-3.8021e-05
-3.97306e-05
-4.14951e-05
-4.3184e-05
-4.48651e-05
-4.65466e-05
-4.82133e-05
-4.98725e-05
-5.15197e-05
-5.3154e-05
-5.47781e-05
-5.63958e-05
-5.80158e-05
-5.96414e-05
-6.12819e-05
-6.29453e-05
-6.46413e-05
-6.63775e-05
-6.81604e-05
-6.99946e-05
-7.18827e-05
-7.3824e-05
-7.58145e-05
-7.78484e-05
-7.99125e-05
-8.19957e-05
-8.40952e-05
-8.62042e-05
-8.83295e-05
-9.04929e-05
-9.26953e-05
-9.50706e-05
-9.76405e-05
-0.000100251
-0.000102814
-9.57968e-05
-8.84456e-05
-8.09514e-05
-7.373e-05
-6.68371e-05
-6.03415e-05
-5.42315e-05
-4.83916e-05
-4.2789e-05
-3.7407e-05
-3.22452e-05
-2.73076e-05
-2.25968e-05
-1.81165e-05
-1.38714e-05
-9.86064e-06
-6.07848e-06
-2.51729e-06
8.32803e-07
3.98269e-06
6.94475e-06
9.73043e-06
1.23502e-05
1.48106e-05
1.71245e-05
1.92985e-05
2.13368e-05
2.32462e-05
2.50293e-05
2.669e-05
2.82215e-05
2.96739e-05
3.10352e-05
3.2225e-05
3.33296e-05
3.4324e-05
3.52184e-05
3.60106e-05
3.67026e-05
3.72952e-05
3.7791e-05
3.81899e-05
3.84884e-05
-2.0244e-05
-2.20763e-05
-2.38942e-05
-2.57011e-05
-2.74974e-05
-2.9281e-05
-3.10523e-05
-3.28109e-05
-3.45594e-05
-3.62963e-05
-3.80129e-05
-3.97377e-05
-4.15187e-05
-4.32271e-05
-4.49291e-05
-4.66325e-05
-4.8325e-05
-5.00129e-05
-5.16951e-05
-5.33699e-05
-5.50428e-05
-5.67175e-05
-5.84039e-05
-6.01067e-05
-6.18349e-05
-6.35974e-05
-6.54036e-05
-6.72613e-05
-6.91778e-05
-7.1157e-05
-7.32007e-05
-7.53086e-05
-7.74761e-05
-7.96967e-05
-8.19561e-05
-8.42408e-05
-8.65496e-05
-8.88763e-05
-9.1229e-05
-9.36325e-05
-9.60853e-05
-9.87414e-05
-0.000101627
-0.00010457
-0.000107468
-0.000100192
-9.24926e-05
-8.45918e-05
-7.69671e-05
-6.96793e-05
-6.28171e-05
-5.63731e-05
-5.02223e-05
-4.43292e-05
-3.86805e-05
-3.32735e-05
-2.81189e-05
-2.32177e-05
-1.85729e-05
-1.41902e-05
-1.00663e-05
-6.1933e-06
-2.56019e-06
8.45551e-07
4.03702e-06
7.02947e-06
9.83575e-06
1.24677e-05
1.49333e-05
1.72468e-05
1.94139e-05
2.14427e-05
2.33379e-05
2.51057e-05
2.67486e-05
2.8263e-05
2.97004e-05
3.10487e-05
3.22249e-05
3.33192e-05
3.43051e-05
3.51931e-05
3.59812e-05
3.66713e-05
3.72638e-05
3.77609e-05
3.81632e-05
3.84719e-05
3.8684e-05
-1.84064e-05
-2.02387e-05
-2.20594e-05
-2.38706e-05
-2.56737e-05
-2.74669e-05
-2.92492e-05
-3.10212e-05
-3.27832e-05
-3.45385e-05
-3.62851e-05
-3.80141e-05
-3.97563e-05
-4.15534e-05
-4.32815e-05
-4.50066e-05
-4.67339e-05
-4.84552e-05
-5.01763e-05
-5.1897e-05
-5.36194e-05
-5.53474e-05
-5.70873e-05
-5.88479e-05
-6.0636e-05
-6.24597e-05
-6.43291e-05
-6.62525e-05
-6.82388e-05
-7.02948e-05
-7.24245e-05
-7.46298e-05
-7.6909e-05
-7.92585e-05
-8.16712e-05
-8.41311e-05
-8.66231e-05
-8.91471e-05
-9.16986e-05
-9.42866e-05
-9.69399e-05
-9.96548e-05
-0.000102607
-0.000105825
-0.000109121
-0.000112375
-0.000104856
-9.68072e-05
-8.84888e-05
-8.0438e-05
-7.27354e-05
-6.54815e-05
-5.86802e-05
-5.2191e-05
-4.5984e-05
-4.0041e-05
-3.4365e-05
-2.8969e-05
-2.38563e-05
-1.90296e-05
-1.44942e-05
-1.02451e-05
-6.27267e-06
-2.56283e-06
9.01231e-07
4.13591e-06
7.15825e-06
9.98453e-06
1.26273e-05
1.50971e-05
1.74089e-05
1.95686e-05
2.1586e-05
2.34655e-05
2.52161e-05
2.6839e-05
2.83342e-05
2.97529e-05
3.10841e-05
3.22442e-05
3.33251e-05
3.42995e-05
3.51785e-05
3.59597e-05
3.66453e-05
3.72355e-05
3.77321e-05
3.81354e-05
3.84472e-05
3.8669e-05
3.87969e-05
-1.65709e-05
-1.84011e-05
-2.0222e-05
-2.2036e-05
-2.38431e-05
-2.56429e-05
-2.74343e-05
-2.9217e-05
-3.09918e-05
-3.27594e-05
-3.45236e-05
-3.62818e-05
-3.80253e-05
-3.9786e-05
-4.15996e-05
-4.33478e-05
-4.50976e-05
-4.68514e-05
-4.86053e-05
-5.03651e-05
-5.21306e-05
-5.39069e-05
-5.56975e-05
-5.75105e-05
-5.93533e-05
-6.1234e-05
-6.31612e-05
-6.51437e-05
-6.71905e-05
-6.93104e-05
-7.15102e-05
-7.3795e-05
-7.61654e-05
-7.86199e-05
-8.11546e-05
-8.37633e-05
-8.64277e-05
-8.91325e-05
-9.18773e-05
-9.46608e-05
-9.74921e-05
-0.000100405
-0.000103394
-0.000106658
-0.000110229
-0.0001139
-0.000117529
-0.000109789
-0.000101394
-9.26457e-05
-8.41521e-05
-7.60101e-05
-6.83424e-05
-6.11578e-05
-5.43061e-05
-4.77553e-05
-4.14919e-05
-3.55197e-05
-2.98589e-05
-2.4512e-05
-1.94833e-05
-1.47778e-05
-1.03912e-05
-6.30958e-06
-2.51525e-06
1.01128e-06
4.29058e-06
7.34304e-06
1.01874e-05
1.28388e-05
1.53109e-05
1.76176e-05
1.97682e-05
2.17712e-05
2.36342e-05
2.53652e-05
2.69656e-05
2.84388e-05
2.98347e-05
3.11454e-05
3.22868e-05
3.33505e-05
3.43105e-05
3.51775e-05
3.59491e-05
3.66275e-05
3.72128e-05
3.77066e-05
3.81091e-05
3.84216e-05
3.86462e-05
3.87832e-05
3.88297e-05
-1.47389e-05
-1.65657e-05
-1.83846e-05
-2.01988e-05
-2.20085e-05
-2.38122e-05
-2.56098e-05
-2.74009e-05
-2.91859e-05
-3.09655e-05
-3.2741e-05
-3.4516e-05
-3.62872e-05
-3.80467e-05
-3.98262e-05
-4.16569e-05
-4.34274e-05
-4.52039e-05
-4.69881e-05
-4.87787e-05
-5.05826e-05
-5.24004e-05
-5.42377e-05
-5.6099e-05
-5.79923e-05
-5.99249e-05
-6.19055e-05
-6.39416e-05
-6.60431e-05
-6.82172e-05
-7.04746e-05
-7.28212e-05
-7.5263e-05
-7.78002e-05
-8.04316e-05
-8.31538e-05
-8.59611e-05
-8.8833e-05
-9.17552e-05
-9.47267e-05
-9.77491e-05
-0.000100833
-0.000104016
-0.000107292
-0.000110885
-0.00011483
-0.000118898
-0.000122924
-0.00011499
-0.000106255
-9.70684e-05
-8.8113e-05
-7.95129e-05
-7.14057e-05
-6.38134e-05
-5.65692e-05
-4.96488e-05
-4.30351e-05
-3.67401e-05
-3.07873e-05
-2.51824e-05
-1.99306e-05
-1.50371e-05
-1.04967e-05
-6.29491e-06
-2.40834e-06
1.18609e-06
4.51261e-06
7.59508e-06
1.04561e-05
1.31136e-05
1.55845e-05
1.78825e-05
2.00203e-05
2.20061e-05
2.38493e-05
2.55569e-05
2.71324e-05
2.8581e-05
2.99501e-05
3.12376e-05
3.2356e-05
3.33993e-05
3.43415e-05
3.51933e-05
3.59524e-05
3.66207e-05
3.71985e-05
3.76869e-05
3.80864e-05
3.83978e-05
3.86226e-05
3.87622e-05
3.88173e-05
3.87857e-05
-1.29136e-05
-1.47337e-05
-1.65495e-05
-1.83617e-05