/*--------------------------------*- C++ -*----------------------------------*\
  =========                 |
  \\      /  F ield         | OpenFOAM: The Open Source CFD Toolbox
   \\    /   O peration     | Website:  https://openfoam.org
    \\  /    A nd           | Version:  7
     \\/     M anipulation  |
\*---------------------------------------------------------------------------*/
FoamFile
{
    version     2.0;
    format      ascii;
    class       volVectorField;
    location    "0";
    object      U;
}
// * * * * * * * * * * * * * * * * * * * * * * * * * * * * * * * * * * * * * //

dimensions      [0 1 -1 0 0 0 0];

internalField   nonuniform List<vector> 
10981
(
(0.00450053 -1.74566e-07 5.40761e-24)
(0.00449248 -6.06004e-08 5.78694e-24)
(0.00987282 -9.27009e-07 4.02784e-24)
(0.0045039 -1.46627e-07 0)
(0.00449127 3.16704e-07 3.40797e-25)
(0.00986329 -1.18264e-06 -4.02317e-24)
(0.0129771 -1.28704e-06 0)
(0.00987512 -3.61122e-07 0)
(0.00450259 -9.31173e-08 0)
(0.00450284 8.20572e-07 -1.15481e-23)
(0.00985868 -1.09716e-06 1.17914e-22)
(0.0129699 -2.22528e-06 2.26797e-23)
(0.0152368 -1.21901e-06 -4.45267e-24)
(0.0129748 1.63262e-08 -2.5623e-24)
(0.00987052 3.2943e-07 0)
(0.00450252 -3.88295e-07 -1.78974e-23)
(0.00453152 1.33287e-06 0)
(0.00986692 -6.7054e-07 1.70678e-23)
(0.0129647 -2.78396e-06 -2.68169e-22)
(0.0152349 -3.17879e-06 -3.18055e-23)
(0.0170523 -2.24382e-07 3.80046e-24)
(0.0152273 1.08248e-06 0)
(0.0129642 1.5223e-06 2.56476e-24)
(0.00986658 6.65145e-07 -1.09865e-22)
(0.00451444 -8.29707e-07 -1.21274e-22)
(0.00457696 1.86059e-06 -1.24431e-23)
(0.00989566 -3.0917e-07 5.82697e-22)
(0.0129713 -2.75143e-06 -1.17824e-23)
(0.0152331 -4.63205e-06 -6.04388e-28)
(0.017059 -3.40374e-06 4.26391e-23)
(0.0185782 2.13325e-06 0)
(0.0170337 3.30057e-06 0)
(0.0152083 3.63427e-06 0)
(0.0129534 2.58044e-06 2.27965e-22)
(0.00987528 6.23796e-07 1.16005e-22)
(0.00454023 -1.37115e-06 1.57972e-23)
(0.0046328 2.00651e-06 1.88705e-23)
(0.00994853 1.49669e-07 -3.5852e-23)
(0.0129975 -2.77639e-06 -3.8953e-22)
(0.0152426 -5.3048e-06 0)
(0.0170644 -6.05016e-06 1.27418e-22)
(0.018595 -2.46572e-06 1.07781e-26)
(0.0198924 6.23208e-06 -3.01961e-24)
(0.0185492 7.02451e-06 0)
(0.0170054 7.01154e-06 -2.06147e-23)
(0.0151881 5.60631e-06 -1.28626e-22)
(0.0129547 3.06082e-06 0)
(0.00990111 3.03062e-07 -2.42035e-23)
(0.00458487 -1.96942e-06 -3.05835e-23)
(0.00469299 2.18448e-06 -8.31353e-22)
(0.0100153 -1.71388e-07 1.80202e-23)
(0.0130476 -2.82658e-06 0)
(0.0152716 -6.02758e-06 0)
(0.0170796 -7.76688e-06 0)
(0.0186097 -6.50597e-06 1.42782e-23)
(0.0199199 2.86152e-08 -1.53512e-23)
(0.0210397 1.24009e-05 0)
(0.0198521 1.26698e-05 0)
(0.01851 1.20704e-05 2.98638e-23)
(0.0169749 1.01301e-05 -6.63093e-24)
(0.0151799 6.86458e-06 1.42553e-23)
(0.0129731 3.27673e-06 0)
(0.0099516 -3.78523e-07 8.65256e-25)
(0.00464148 -2.21787e-06 1.47958e-23)
(0.0047581 2.33679e-06 0)
(0.0100844 -3.60264e-07 5.87938e-22)
(0.0131113 -3.74191e-06 -6.3046e-24)
(0.0153236 -7.00562e-06 0)
(0.0171145 -9.53566e-06 5.14239e-22)
(0.018634 -9.5497e-06 4.61478e-22)
(0.0199447 -5.57394e-06 -6.24453e-24)
(0.0210785 4.47061e-06 0)
(0.022051 2.09168e-05 0)
(0.0209883 2.05259e-05 0)
(0.0198014 1.92061e-05 -5.25622e-24)
(0.0184683 1.65104e-05 1.70754e-22)
(0.016955 1.24863e-05 -1.17564e-23)
(0.0151887 7.97071e-06 -4.27056e-22)
(0.0130135 3.10847e-06 0)
(0.0100165 -3.79147e-07 5.83556e-24)
(0.0047053 -2.35542e-06 0)
(0.00482182 2.38662e-06 0)
(0.0101566 -6.03748e-07 1.18265e-21)
(0.0131767 -4.5616e-06 6.27377e-24)
(0.0153892 -8.6813e-06 1.27909e-21)
(0.0171711 -1.15734e-05 1.09457e-21)
(0.0186766 -1.27017e-05 -4.83676e-22)
(0.019979 -1.0226e-05 -4.28511e-22)
(0.0211142 -2.87762e-06 -1.85101e-22)
(0.0221007 1.11292e-05 -1.04681e-23)
(0.0229494 3.19555e-05 0)
(0.021989 3.08608e-05 -2.31044e-24)
(0.0209263 2.86789e-05 -3.44939e-23)
(0.0197475 2.50992e-05 -1.68141e-22)
(0.0184366 2.02392e-05 -4.84059e-24)
(0.0169519 1.477e-05 5.75269e-25)
(0.0152178 8.87652e-06 -4.73907e-25)
(0.0130664 3.75435e-06 -3.40718e-24)
(0.0100846 -2.98162e-07 6.08138e-22)
(0.0047722 -2.41709e-06 0)
(0.00488777 2.38077e-06 0)
(0.0102244 -7.74014e-07 0)
(0.0132435 -5.61422e-06 -8.13755e-22)
(0.015457 -1.03587e-05 2.53795e-24)
(0.0172415 -1.42567e-05 -1.09213e-21)
(0.0187401 -1.5927e-05 -9.52245e-22)
(0.0200307 -1.49202e-05 1.30547e-23)
(0.0211586 -9.35782e-06 -1.19748e-23)
(0.0221473 1.90177e-06 1.69455e-22)
(0.0230089 2.01985e-05 0)
(0.0237534 4.56087e-05 0)
(0.0228778 4.38073e-05 0)
(0.0219165 4.07447e-05 3.82558e-23)
(0.0208608 3.62557e-05 -4.77229e-24)
(0.0197032 3.04316e-05 9.86931e-24)
(0.0184205 2.40108e-05 -3.18202e-22)
(0.0169679 1.70166e-05 6.82656e-22)
(0.015257 1.03963e-05 7.20544e-22)
(0.0131194 4.62964e-06 -4.10974e-22)
(0.0101533 -6.88394e-08 -2.22475e-24)
(0.0048401 -2.28348e-06 9.89506e-24)
(0.00494972 2.36243e-06 0)
(0.0102909 -1.28769e-06 3.71835e-23)
(0.0133047 -6.23084e-06 -8.16827e-22)
(0.015525 -1.24451e-05 -2.52631e-24)
(0.0173143 -1.69926e-05 0)
(0.0188173 -1.98981e-05 0)
(0.0201029 -1.95954e-05 1.35217e-23)
(0.0212202 -1.57562e-05 -2.6693e-25)
(0.0222019 -6.53667e-06 1.07143e-23)
(0.0230655 8.95377e-06 -9.92998e-24)
(0.0238214 3.17838e-05 3.52768e-23)
(0.0244785 6.18811e-05 0)
(0.0236736 5.94613e-05 -3.9487e-24)
(0.0227959 5.55537e-05 -8.08227e-24)
(0.0218404 5.00887e-05 1.28179e-22)
(0.0208041 4.33642e-05 2.78541e-22)
(0.0196741 3.58668e-05 1.14127e-21)
(0.018422 2.77226e-05 1.01215e-23)
(0.0169922 1.98044e-05 -6.15681e-22)
(0.0152958 1.23567e-05 -1.22562e-24)
(0.0131707 5.69465e-06 0)
(0.0102196 3.59372e-07 1.39919e-23)
(0.0049054 -2.08638e-06 -9.95869e-24)
(0.00500576 2.29475e-06 -8.73636e-22)
(0.0103503 -1.52228e-06 1.14939e-21)
(0.0133628 -7.55626e-06 8.16538e-22)
(0.015587 -1.37457e-05 -6.53077e-22)
(0.0173866 -2.02696e-05 0)
(0.0188963 -2.38116e-05 -9.75441e-22)
(0.0201877 -2.50317e-05 1.73172e-21)
(0.0213011 -2.21138e-05 1.20802e-23)
(0.0222726 -1.48653e-05 0)
(0.0231297 -1.54373e-06 9.88052e-24)
(0.0238865 1.84301e-05 -2.90497e-22)
(0.0245534 4.58952e-05 -4.10403e-23)
(0.0251374 8.07007e-05 0)
(0.0243921 7.78132e-05 0)
(0.0235839 7.31525e-05 3.4714e-23)
(0.0227106 6.67952e-05 1.34245e-22)
(0.0217729 5.91369e-05 -2.46598e-22)
(0.0207623 5.05686e-05 8.53719e-24)
(0.0196615 4.13009e-05 -1.05412e-21)
(0.0184315 3.2117e-05 0)
(0.0170162 2.31131e-05 -1.03887e-24)
(0.0153313 1.46044e-05 5.9408e-22)
(0.0132171 6.78758e-06 -9.64865e-24)
(0.0102783 1.00146e-06 -1.88817e-24)
(0.00497014 -1.7343e-06 0)
(0.00505988 2.22214e-06 8.76009e-22)
(0.0104018 -1.99697e-06 6.64581e-22)
(0.0134141 -8.18776e-06 -8.15639e-22)
(0.015644 -1.60099e-05 -6.94775e-22)
(0.0174531 -2.25396e-05 2.08213e-25)
(0.0189746 -2.8434e-05 -1.96394e-21)
(0.0202745 -3.02887e-05 8.71511e-22)
(0.0213937 -2.91095e-05 -5.41301e-24)
(0.0223619 -2.30263e-05 -1.42237e-21)
(0.0232089 -1.18957e-05 0)
(0.023959 5.75496e-06 0)
(0.0246256 3.03753e-05 7.71133e-24)
(0.0252176 6.24882e-05 0)
(0.0257409 0.000101945 -7.00288e-24)
(0.025046 9.8784e-05 -3.42975e-24)
(0.0242961 9.35345e-05 -5.72098e-23)
(0.0234908 8.6379e-05 -2.18973e-22)
(0.0226336 7.78347e-05 -1.42394e-23)
(0.0217191 6.8312e-05 -9.47291e-22)
(0.0207365 5.79554e-05 4.69339e-22)
(0.0196565 4.75042e-05 0)
(0.0184399 3.69368e-05 -1.81973e-24)
(0.0170354 2.67524e-05 -5.00438e-22)
(0.0153599 1.66516e-05 -5.24415e-22)
(0.0132545 8.48621e-06 -2.77378e-22)
(0.0103317 1.36799e-06 8.21835e-24)
(0.0050248 -1.23258e-06 0)
(0.00510847 2.37936e-06 0)
(0.0104488 -2.50053e-06 -1.83333e-21)
(0.013456 -9.20206e-06 0)
(0.0156941 -1.73895e-05 1.34694e-21)
(0.0175134 -2.59031e-05 0)
(0.0190476 -3.19185e-05 9.56135e-22)
(0.0203593 -3.63452e-05 1.76955e-21)
(0.0214885 -3.59446e-05 1.60657e-21)
(0.0224621 -3.17059e-05 -1.58131e-23)
(0.0233058 -2.20063e-05 1.31892e-21)
(0.0240458 -6.66914e-06 0)
(0.0247048 1.54068e-05 0)
(0.0252953 4.47065e-05 5.18272e-22)
(0.0258248 8.14464e-05 5.01599e-23)
(0.0262975 0.000125455 -6.57445e-24)
(0.0256461 0.000122263 0)
(0.0249455 0.000116598 1.708e-23)
(0.024197 0.000108796 0)
(0.0234059 9.95005e-05 -4.50538e-22)
(0.0225699 8.90826e-05 4.50013e-22)
(0.0216811 7.76973e-05 -8.74111e-22)
(0.0207177 6.60176e-05 -8.70898e-22)
(0.0196501 5.39671e-05 0)
(0.0184431 4.21679e-05 -8.76899e-22)
(0.0170473 3.00652e-05 -8.85749e-25)
(0.0153788 1.9613e-05 2.41207e-22)
(0.0132849 9.446e-06 -2.57915e-22)
(0.0103723 2.33674e-06 -3.65649e-23)
(0.00507655 -8.76286e-07 0)
(0.005155 2.25649e-06 -8.74226e-22)
(0.0104905 -2.49943e-06 1.44923e-22)
(0.0134915 -1.02171e-05 1.61271e-21)
(0.0157344 -1.90915e-05 -8.12667e-23)
(0.017566 -2.83315e-05 -1.04753e-21)
(0.0191133 -3.65058e-05 3.08141e-23)
(0.0204395 -4.13346e-05 0)
(0.0215805 -4.34491e-05 0)
(0.0225643 -4.02682e-05 6.73835e-24)
(0.0234129 -3.24822e-05 -1.33536e-21)
(0.0241491 -1.8846e-05 1.22018e-21)
(0.0247975 8.38229e-07 -1.11781e-21)
(0.0253797 2.73979e-05 -5.28785e-22)
(0.0259065 6.12885e-05 -4.83754e-22)
(0.0263837 0.000102619 -2.01777e-23)
(0.0268137 0.000151065 6.18626e-24)
(0.0262006 0.000148085 0)
(0.0255424 0.000142237 0)
(0.0248418 0.000133975 1.30583e-23)
(0.0241059 0.000124086 4.05583e-22)
(0.0233343 0.000112863 8.22135e-22)
(0.0225215 0.00010058 1.60209e-21)
(0.0216503 8.77605e-05 -1.87458e-24)
(0.0206977 7.43393e-05 -3.2365e-24)
(0.0196383 6.09682e-05 7.82612e-22)
(0.0184392 4.69193e-05 3.87311e-22)
(0.0170494 3.44504e-05 3.75395e-22)
(0.0153893 2.15083e-05 1.8055e-22)
(0.0133023 1.13525e-05 -1.7647e-22)
(0.0104064 3.06264e-06 1.6348e-23)
(0.00512121 -5.78346e-07 1.31795e-23)
(0.00520301 2.33076e-06 0)
(0.0105266 -3.07403e-06 1.58121e-21)
(0.013522 -1.06763e-05 0)
(0.0157672 -2.08528e-05 7.26999e-22)
(0.0176085 -3.09036e-05 -6.95729e-23)
(0.0191709 -4.02104e-05 0)
(0.0205117 -4.72103e-05 5.57836e-23)
(0.0216679 -5.02005e-05 -1.62004e-21)
(0.0226638 -4.93331e-05 0)
(0.0235215 -4.28517e-05 -1.34888e-21)
(0.0242618 -3.12029e-05 1.23448e-21)
(0.0249058 -1.34461e-05 -2.2582e-21)
(0.0254769 1.0602e-05 1.05295e-21)
(0.0259944 4.16232e-05 4.77407e-22)
(0.0264679 7.99718e-05 2.19402e-22)
(0.0269013 0.000125797 6.60354e-24)
(0.0272943 0.000178588 0)
(0.0267159 0.000176092 5.68835e-24)
(0.026095 0.000170282 0)
(0.0254357 0.000161812 0)
(0.0247464 0.000151481 0)
(0.024028 0.000139591 -7.63561e-22)
(0.0232776 0.000126568 -7.44834e-22)
(0.0224807 0.000112731 1.47813e-21)
(0.0216187 9.8038e-05 7.2356e-22)
(0.020673 8.31278e-05 0)
(0.0196194 6.73755e-05 1.01414e-23)
(0.0184256 5.27783e-05 3.38857e-22)
(0.017042 3.75969e-05 3.39766e-22)
(0.0153878 2.44791e-05 1.60033e-22)
(0.013311 1.27853e-05 -1.1259e-23)
(0.010433 3.52853e-06 1.54332e-22)
(0.00516111 -1.90115e-07 -1.32398e-23)
(0.00524556 2.54063e-06 0)
(0.010559 -3.38244e-06 9.94047e-22)
(0.0135453 -1.16926e-05 -7.90505e-22)
(0.0157935 -2.206e-05 1.28144e-21)
(0.0176424 -3.36313e-05 -1.17594e-21)
(0.0192179 -4.38788e-05 2.03251e-21)
(0.0205754 -5.23813e-05 1.72651e-21)
(0.0217472 -5.74403e-05 5.08208e-23)
(0.0227578 -5.7906e-05 2.23425e-23)
(0.0236273 -5.3641e-05 2.132e-23)
(0.0243757 -4.34589e-05 0)
(0.0250228 -2.77588e-05 -3.42488e-21)
(0.0255888 -5.83081e-06 1.0305e-21)
(0.0260946 2.252e-05 0)
(0.0265581 5.79095e-05 2.82738e-23)
(0.0269866 0.000100595 -1.27095e-23)
(0.0273821 0.000150766 0)
(0.0277422 0.000207821 0)
(0.0271967 0.0002061 0)
(0.0266098 0.000200594 -5.68747e-24)
(0.0259868 0.000192152 2.18499e-23)
(0.0253374 0.000181519 0)
(0.0246639 0.00016919 0)
(0.023965 0.000155565 1.12368e-23)
(0.0232287 0.000140822 -6.90823e-22)
(0.0224395 0.000125048 -6.66997e-22)
(0.021583 0.000108662 6.48192e-22)
(0.0206411 9.13693e-05 0)
(0.0195919 7.47626e-05 -6.28209e-22)
(0.0184021 5.73862e-05 2.88356e-22)
(0.0170231 4.16584e-05 0)
(0.0153767 2.69788e-05 0)
(0.0133119 1.39042e-05 -2.3696e-22)
(0.0104517 4.49098e-06 1.31593e-22)
(0.00520143 -9.41442e-09 5.26295e-24)
(0.00528731 2.42124e-06 -2.12455e-22)
(0.0105867 -3.29605e-06 1.40549e-22)
(0.013564 -1.24458e-05 -8.76921e-22)
(0.0158119 -2.35227e-05 0)
(0.0176682 -3.57256e-05 -1.02928e-21)
(0.019255 -4.77247e-05 -1.96031e-21)
(0.0206288 -5.73597e-05 -3.61017e-21)
(0.0218177 -6.42128e-05 -3.24774e-21)
(0.0228443 -6.67057e-05 2.33793e-23)
(0.0237275 -6.40104e-05 1.34359e-21)
(0.0244865 -5.6046e-05 -1.96592e-23)
(0.0251407 -4.19739e-05 0)
(0.0257088 -2.21821e-05 2.1137e-21)
(0.0262088 3.87623e-06 0)
(0.0266599 3.64213e-05 -2.78901e-23)
(0.0270777 7.60429e-05 8.40152e-22)
(0.0274675 0.000122959 2.45935e-23)
(0.0278294 0.000177341 2.27274e-23)
(0.0281591 0.000238589 -1.04025e-23)
(0.0276455 0.000237917 -1.01499e-23)
(0.0270909 0.000233009 -1.02275e-23)
(0.026501 0.000224813 3.40552e-22)
(0.0258868 0.000214086 -2.166e-23)
(0.0252517 0.000201516 -6.6348e-22)
(0.0245964 0.000187426 -9.75887e-24)
(0.0239101 0.000171994 4.74478e-24)
(0.0231801 0.000155244 -1.23801e-21)
(0.0223949 0.000137571 -5.94925e-22)
(0.0215408 0.000118851 0)
(0.0206016 0.000100212 0)
(0.0195544 8.09162e-05 -4.92976e-22)
(0.0183677 6.27054e-05 0)
(0.0169944 4.53442e-05 -1.17609e-23)
(0.0153571 2.90389e-05 9.41589e-23)
(0.0133051 1.57195e-05 -1.56726e-22)
(0.0104638 4.92816e-06 5.69402e-23)
(0.00523627 2.87494e-07 5.28544e-24)
(0.00532724 2.59777e-06 2.13088e-22)
(0.010612 -3.91586e-06 0)
(0.0135784 -1.26828e-05 9.64675e-23)
(0.0158248 -2.48469e-05 0)
(0.0176863 -3.79163e-05 1.08615e-21)
(0.0192842 -5.08922e-05 -1.88398e-21)
(0.0206719 -6.24398e-05 1.65578e-22)
(0.0218784 -7.07283e-05 1.46767e-21)
(0.0229216 -7.51397e-05 2.93044e-21)
(0.0238202 -7.45521e-05 0)
(0.0245918 -6.8292e-05 1.95814e-23)
(0.0252554 -5.64149e-05 -2.29881e-21)
(0.0258291 -3.83901e-05 0)
(0.0263303 -1.45865e-05 7.7349e-24)
(0.026775 1.54915e-05 -1.82086e-21)
(0.0271801 5.21038e-05 1.6932e-21)
(0.0275586 9.57958e-05 -1.59854e-21)
(0.0279141 0.000146842 -2.25211e-23)
(0.0282449 0.000205328 -3.20347e-23)
(0.0285451 0.000270712 9.83256e-24)
(0.0280639 0.000271389 9.59757e-24)
(0.0275408 0.00026734 1.01641e-23)
(0.0269825 0.000259627 -7.31192e-24)
(0.0264005 0.000249049 1.92659e-23)
(0.0257995 0.000236447 1.24805e-21)
(0.0251815 0.000222069 0)
(0.0245375 0.000206094 1.41026e-23)
(0.0238563 0.000188536 1.14484e-21)
(0.0231289 0.000169723 -5.89943e-24)
(0.0223447 0.000149648 1.05613e-21)
(0.0214914 0.000129217 0)
(0.0205526 0.000108052 0)
(0.0195071 8.74796e-05 -4.36056e-22)
(0.0183238 6.75997e-05 3.87865e-22)
(0.0169569 4.84561e-05 3.33629e-24)
(0.0153293 3.15223e-05 6.23224e-23)
(0.0132903 1.67618e-05 -7.8719e-23)
(0.0104705 5.37687e-06 0)
(0.00526635 6.30577e-07 0)
(0.00536251 2.5693e-06 8.34786e-22)
(0.0106345 -3.94774e-06 -1.33777e-22)
(0.0135882 -1.36329e-05 5.67154e-22)
(0.0158325 -2.56541e-05 1.53203e-22)
(0.0176981 -3.99895e-05 9.38957e-22)
(0.0193051 -5.40708e-05 -9.63398e-22)
(0.0207067 -6.69618e-05 3.39924e-21)
(0.0219284 -7.71613e-05 3.22454e-21)
(0.0229889 -8.33639e-05 -1.48509e-21)
(0.0239039 -8.47265e-05 -4.01979e-21)
(0.0246894 -8.06288e-05 0)
(0.0253642 -7.06177e-05 -5.44639e-23)
(0.0259461 -5.47857e-05 -4.61073e-24)
(0.026452 -3.28295e-05 -1.99274e-21)
(0.0268968 -5.13809e-06 1.83335e-21)
(0.0272949 2.88006e-05 1.69447e-21)
(0.0276603 6.93313e-05 7.53147e-24)
(0.0280042 0.000116944 7.38001e-22)
(0.0283283 0.00017201 0)
(0.0286292 0.000234527 2.99507e-23)
(0.0289 0.000304038 0)
(0.0284519 0.000306341 0)
(0.0279608 0.000303438 -9.62139e-24)
(0.0274336 0.000296443 -3.21878e-22)
(0.0268822 0.000286273 -5.66241e-22)
(0.0263127 0.000273834 -6.07098e-22)
(0.0257277 0.000259332 0)
(0.0251202 0.000243004 4.17812e-24)
(0.0244803 0.000224799 -2.39841e-24)
(0.0238006 0.000204997 -2.1207e-24)
(0.0230729 0.000183686 -9.67715e-22)
(0.0222881 0.000161684 -1.33287e-23)
(0.021434 0.00013873 -1.21476e-23)
(0.0204951 0.000115961 7.66088e-22)
(0.0194511 9.36025e-05 -3.04727e-22)
(0.0182715 7.17652e-05 2.71603e-22)
(0.0169117 5.17723e-05 1.05402e-22)
(0.0152941 3.34511e-05 3.35324e-23)
(0.01327 1.76525e-05 -1.67576e-24)
(0.0104719 6.19166e-06 0)
(0.00529604 7.81664e-07 0)
(0.00539706 2.568e-06 -8.21731e-22)
(0.0106523 -4.21622e-06 -1.45202e-21)
(0.0135949 -1.3943e-05 1.86421e-22)
(0.0158355 -2.70251e-05 -6.0818e-22)
(0.017704 -4.15124e-05 1.1894e-21)
(0.0193189 -5.7066e-05 -1.19551e-22)
(0.0207321 -7.12539e-05 0)
(0.0219692 -8.32155e-05 -3.0007e-21)
(0.0230459 -9.12966e-05 -1.56958e-21)
(0.0239773 -9.47078e-05 4.00948e-21)
(0.0247782 -9.26444e-05 2.59728e-21)
(0.0254655 -8.47805e-05 1.09011e-22)
(0.026057 -7.09543e-05 0)
(0.0265698 -5.12732e-05 1.98681e-21)
(0.0270184 -2.55193e-05 1.829e-21)
(0.0274156 5.93032e-06 -1.71731e-21)
(0.0277735 4.35502e-05 -1.59242e-21)
(0.0281042 8.78538e-05 -1.50573e-21)
(0.0284165 0.000139271 0)
(0.0287107 0.00019827 3.26291e-22)
(0.028982 0.00026479 -1.91184e-23)
(0.0292229 0.000338452 0)
(0.0288089 0.000342645 0)
(0.0283508 0.000341152 0)
(0.0278552 0.000335126 0)
(0.0273342 0.000325597 1.15959e-21)
(0.0267947 0.000313491 1.11902e-21)
(0.0262404 0.000299105 1.63466e-23)
(0.0256653 0.000282579 0)
(0.0250611 0.000263877 -7.91411e-24)
(0.0244218 0.000243285 -9.7193e-22)
(0.023741 0.000220879 0)
(0.0230115 0.000197428 -8.55157e-22)
(0.0222246 0.000172794 1.32299e-23)
(0.0213684 0.00014802 -3.17979e-22)
(0.0204297 0.000123312 1.67266e-23)
(0.0193872 9.89626e-05 -2.55094e-22)
(0.0182125 7.60238e-05 -1.87424e-22)
(0.01686 5.45658e-05 -4.88918e-23)
(0.0152532 3.50724e-05 6.60027e-24)
(0.0132446 1.91287e-05 1.32274e-23)
(0.0104699 6.38814e-06 0)
(0.00531876 1.11273e-06 0)
(0.00542684 2.60866e-06 -3.99505e-22)
(0.0106671 -4.65058e-06 -5.16468e-22)
(0.0135975 -1.44551e-05 1.45023e-21)
(0.0158348 -2.7776e-05 -1.49721e-22)
(0.0177046 -4.34831e-05 -1.03868e-21)
(0.0193265 -5.94955e-05 1.16097e-22)
(0.0207502 -7.53862e-05 -9.65213e-22)
(0.0220011 -8.87891e-05 -9.93755e-23)
(0.0230935 -9.89592e-05 9.12771e-23)
(0.0240407 -0.000104324 1.35859e-21)
(0.0248568 -0.000104412 -2.51178e-21)
(0.0255578 -9.87078e-05 -1.45109e-22)
(0.0261605 -8.70291e-05 0)
(0.0266813 -6.94192e-05 0)
(0.0271356 -4.6044e-05 7.16464e-24)
(0.0275357 -1.67036e-05 1.32888e-23)
(0.0278921 1.83448e-05 0)
(0.0282148 5.94996e-05 1.48372e-21)
(0.0285139 0.000107429 1.40043e-21)
(0.0287963 0.00016257 0)
(0.0290612 0.000225425 -2.86309e-22)
(0.0293027 0.000295971 0)
(0.029513 0.000373857 8.30013e-24)
(0.0291341 0.000380203 -8.12756e-24)
(0.0287101 0.000380363 0)
(0.0282471 0.000375535 -2.74717e-22)
(0.027757 0.000366871 -2.8472e-23)
(0.0272473 0.000355312 -2.11669e-21)
(0.0267224 0.000341219 -1.66548e-23)
(0.0261777 0.000324683 -2.36444e-23)
(0.0256056 0.000305659 0)
(0.0250015 0.000284436 9.11948e-22)
(0.0243603 0.000261089 0)
(0.0236766 0.00023628 7.94944e-22)
(0.0229438 0.000210129 -7.51352e-22)
(0.0221536 0.000183498 0)
(0.0212961 0.000156529 -3.16175e-22)
(0.020357 0.000129861 -4.6158e-24)
(0.0193173 0.000104136 7.05959e-23)
(0.0181474 7.96384e-05 -4.61768e-24)
(0.0168029 5.69136e-05 -8.4289e-24)
(0.0152075 3.70237e-05 4.00646e-23)
(0.0132142 1.96617e-05 5.68357e-23)
(0.0104621 7.11185e-06 0)
(0.00533956 1.35281e-06 0)
(0.00545287 2.5922e-06 4.00294e-22)
(0.010677 -4.81662e-06 -1.00894e-21)
(0.0135968 -1.52538e-05 7.08997e-22)
(0.0158295 -2.86692e-05 -5.82531e-22)
(0.0177009 -4.48458e-05 0)
(0.0193279 -6.22476e-05 8.05603e-22)
(0.0207619 -7.89341e-05 -2.43214e-21)
(0.0220253 -9.42508e-05 -1.56603e-21)
(0.0231322 -0.000106029 9.04495e-23)
(0.0240946 -0.000113648 1.43224e-21)
(0.0249256 -0.00011584 -3.90679e-21)
(0.0256402 -0.000112326 7.23491e-23)
(0.026255 -0.000102899 0)
(0.0267855 -8.75073e-05 1.92707e-21)
(0.0272465 -6.62539e-05 -5.77797e-23)
(0.0276511 -3.93553e-05 0)
(0.0280096 -6.63207e-06 0)
(0.0283302 3.18278e-05 2.30928e-23)
(0.028621 7.63969e-05 0)
(0.0288904 0.000127817 -2.62332e-21)
(0.0291439 0.000186647 0)
(0.0293794 0.00025333 -3.66055e-23)
(0.0295906 0.000327966 -8.26465e-24)
(0.0297699 0.000410202 1.57069e-23)
(0.0294265 0.000418941 7.69102e-24)
(0.0290375 0.000420981 2.37123e-23)
(0.0286085 0.000417576 2.57962e-22)
(0.0281504 0.00040999 4.68359e-24)
(0.027671 0.000399158 1.03184e-21)
(0.0271755 0.000385541 -1.46781e-23)
(0.02666 0.000369161 9.46683e-22)
(0.0261181 0.000350005 7.3946e-24)
(0.0255459 0.000328284 -1.27428e-23)
(0.0249393 0.000304087 0)
(0.0242946 0.000278172 0)
(0.0236068 0.000250618 6.98968e-22)
(0.0228698 0.0002222 2.07657e-23)
(0.0220766 0.000193194 2.72523e-22)
(0.0212174 0.000164243 2.63382e-23)
(0.0202791 0.000135866 -1.93194e-23)
(0.0192418 0.0001086 4.36554e-23)
(0.0180777 8.27379e-05 6.26959e-24)
(0.0167414 5.94303e-05 -5.33679e-23)
(0.0151578 3.81572e-05 -4.50578e-23)
(0.01318 2.07427e-05 0)
(0.0104497 7.56168e-06 2.005e-22)
(0.00535653 1.60126e-06 -1.05783e-22)
(0.00547829 2.36043e-06 0)
(0.0106825 -5.09268e-06 -4.91614e-22)
(0.0135907 -1.55501e-05 8.63373e-22)
(0.0158198 -2.98787e-05 1.13872e-21)
(0.0176921 -4.63113e-05 0)
(0.0193248 -6.44194e-05 -7.91854e-22)
(0.0207671 -8.26357e-05 -1.66448e-21)
(0.0220426 -9.91261e-05 3.08846e-21)
(0.0231628 -0.000112947 -9.06391e-23)
(0.0241396 -0.000122371 -8.37611e-23)
(0.0249848 -0.000126871 7.77254e-23)
(0.0257129 -0.000125604 2.30113e-21)
(0.0263397 -0.00011843 2.13775e-21)
(0.0268808 -0.000105362 6.18366e-23)
(0.02735 -8.64327e-05 -1.83785e-21)
(0.0277602 -6.17538e-05 0)
(0.0281221 -3.1515e-05 3.2013e-21)
(0.028444 4.40664e-06 2.98493e-21)
(0.0287321 4.6104e-05 -2.78863e-21)
(0.0289932 9.39821e-05 2.64761e-21)
(0.029234 0.000148815 1.2279e-21)
(0.0294588 0.0002113 1.20467e-21)
(0.0296646 0.000281868 0)
(0.0298454 0.000360693 -4.78884e-23)
(0.0299935 0.000447459 0)
(0.0296855 0.000458826 0)
(0.0293322 0.000462947 -7.72579e-24)
(0.028938 0.000461173 -2.92696e-22)
(0.0285132 0.000454825 -4.84139e-22)
(0.0280652 0.000444941 9.56116e-22)
(0.0275997 0.000431969 -1.8722e-21)
(0.0271135 0.000415891 -8.76123e-22)
(0.0266009 0.000396771 0)
(0.0260588 0.000374666 -1.20727e-23)
(0.025484 0.00034984 1.26587e-23)
(0.0248737 0.000322925 -2.05997e-23)
(0.0242244 0.000294078 -6.44683e-22)
(0.0235314 0.00026401 5.51141e-22)
(0.0227905 0.000233117 -1.33507e-23)
(0.0219944 0.000201986 -2.11076e-22)
(0.0211342 0.000171126 -1.7888e-23)
(0.0201968 0.000141203 4.40051e-24)
(0.0191629 0.000112411 -4.83416e-24)
(0.0180043 8.58457e-05 -2.9315e-23)
(0.0166766 6.11033e-05 8.41966e-24)
(0.0151042 3.96434e-05 1.38645e-22)
(0.0131419 2.15925e-05 -3.88283e-23)
(0.0104335 7.92936e-06 6.70406e-23)
(0.0053675 1.77971e-06 2.29012e-22)
(0.00549624 2.22014e-06 7.51981e-22)
(0.0106834 -5.74986e-06 4.78652e-22)
(0.0135795 -1.61781e-05 -5.07375e-22)
(0.0158046 -3.04353e-05 1.37504e-22)
(0.0176779 -4.79822e-05 -9.77154e-22)
(0.0193162 -6.6623e-05 -1.1073e-21)
(0.0207671 -8.58305e-05 8.17267e-22)
(0.0220529 -0.000103946 1.70846e-21)
(0.0231864 -0.000119305 -1.41655e-21)
(0.0241767 -0.00013087 1.15568e-21)
(0.0250355 -0.000137368 0)
(0.0257764 -0.00013843 -2.28618e-21)
(0.0264149 -0.000133607 0)
(0.0269662 -0.000122843 -1.84637e-21)
(0.0274445 -0.000106327 1.7181e-22)
(0.0278616 -8.40831e-05 0)
(0.028228 -5.62234e-05 0)
(0.0285524 -2.28449e-05 2.08724e-23)
(0.0288411 1.6118e-05 5.85255e-24)
(0.0290991 6.09218e-05 2.58404e-21)
(0.0293317 0.000112027 -2.4463e-21)
(0.0295444 0.000170253 0)
(0.0297405 0.000236392 -1.12494e-21)
(0.0299168 0.000310948 -4.87326e-22)
(0.0300671 0.000394105 0)
(0.0301846 0.000485637 0)
(0.0299111 0.000499851 0)
(0.0295933 0.000506263 0)
(0.0292345 0.000506291 7.2828e-22)
(0.0288439 0.000501354 2.96623e-23)
(0.0284286 0.00049258 9.64713e-24)
(0.0279942 0.000480381 1.75898e-21)
(0.0275379 0.000464799 -1.69045e-21)
(0.0270551 0.000445828 0)
(0.0265425 0.000423502 -1.55265e-21)
(0.0259979 0.000398176 1.19941e-23)
(0.0254194 0.000370414 -6.72942e-22)
(0.0248043 0.000340383 6.25007e-22)
(0.0241491 0.000308794 -5.33552e-22)
(0.0234514 0.000276109 -4.58717e-22)
(0.0227066 0.000242907 -1.93183e-22)
(0.0219082 0.000209741 0)
(0.0210475 0.000177265 1.25192e-23)
(0.0201115 0.000145673 1.61004e-23)
(0.0190812 0.000116024 3.23513e-23)
(0.0179283 8.80334e-05 -7.143e-24)
(0.0166086 6.30129e-05 -1.38329e-24)
(0.0150472 4.08674e-05 -5.38808e-23)
(0.0130993 2.2112e-05 -7.62767e-24)
(0.0104116 8.46348e-06 -2.88597e-22)
(0.00537811 2.00766e-06 -2.62541e-22)
(0.00550607 2.00374e-06 3.58582e-22)
(0.0106754 -6.07354e-06 -4.625e-22)
(0.0135627 -1.70557e-05 3.2792e-22)
(0.0157833 -3.14088e-05 1.48879e-21)
(0.0176583 -4.90143e-05 1.17944e-22)
(0.019301 -6.88429e-05 9.75999e-22)
(0.0207607 -8.89133e-05 2.40369e-21)
(0.0220576 -0.000108324 -1.87899e-22)
(0.023203 -0.000125413 1.22136e-21)
(0.0242064 -0.0001388 1.4662e-21)
(0.0250781 -0.000147537 0)
(0.0258314 -0.000150777 0)
(0.026481 -0.000148311 -1.34808e-22)
(0.0270424 -0.000140011 -1.95989e-21)
(0.0275294 -0.000125839 -1.29883e-25)
(0.0279539 -0.000106092 0)
(0.0283261 -8.07816e-05 3.17764e-21)
(0.0286539 -4.99613e-05 0)
(0.0289444 -1.36448e-05 -2.81402e-21)
(0.0292023 2.82431e-05 -5.21304e-21)
(0.0294316 7.60519e-05 0)
(0.0296364 0.00013033 0)
(0.0298214 0.000191969 -6.96709e-25)
(0.0299891 0.000261821 -3.26844e-23)
(0.0301361 0.000340494 4.8494e-22)
(0.0302565 0.000428186 0)
(0.0303442 0.00052475 1.35073e-23)
(0.030104 0.000542046 -1.31517e-23)
(0.0298208 0.000550937 5.47774e-23)
(0.0294973 0.000552945 -4.11554e-22)
(0.0291413 0.000549564 -5.46202e-23)
(0.0287596 0.000542025 -8.49825e-22)
(0.0283573 0.00053073 -1.67191e-21)
(0.0279321 0.000515784 3.20366e-21)
(0.0274797 0.000497065 0)
(0.0269973 0.000474685 -2.78143e-24)
(0.0264827 0.000449012 0)
(0.0259348 0.000420468 -6.63118e-22)
(0.0253513 0.000389366 0)
(0.0247302 0.000356415 0)
(0.0240699 0.000322037 1.90081e-23)
(0.0233677 0.000286876 3.44121e-22)
(0.0226194 0.00025153 1.92914e-23)
(0.0218193 0.000216586 0)
(0.0209585 0.000182379 -6.6028e-24)
(0.0200242 0.000149764 -5.63394e-23)
(0.0189975 0.000118725 0)
(0.0178501 9.02922e-05 -2.32089e-22)
(0.0165376 6.45157e-05 0)
(0.0149862 4.16285e-05 -2.9642e-23)
(0.0130519 2.30237e-05 9.09684e-23)
(0.0103853 8.94014e-06 1.64648e-22)
(0.00538337 2.3131e-06 2.87096e-22)
(0.00550891 1.55993e-06 -1.07186e-23)
(0.0106619 -6.60174e-06 2.25827e-22)
(0.0135377 -1.7402e-05 0)
(0.0157556 -3.24337e-05 -1.05507e-21)
(0.017632 -5.03859e-05 -1.04751e-21)
(0.0192799 -7.05506e-05 8.4631e-22)
(0.020748 -9.19089e-05 -9.77871e-22)
(0.0220558 -0.000112455 1.81228e-22)
(0.0232136 -0.000131136 1.71164e-21)
(0.0242292 -0.000146372 -1.44041e-21)
(0.0251133 -0.000157124 -3.44495e-21)
(0.0258783 -0.000162651 2.23575e-21)
(0.0265386 -0.00016253 2.08434e-21)
(0.0271094 -0.000156619 -1.25762e-22)
(0.0276048 -0.000145048 1.69154e-21)
(0.0280368 -0.00012775 0)
(0.0284151 -0.000105007 -3.25566e-21)
(0.0287475 -7.68679e-05 -7.78567e-23)
(0.0290405 -4.3275e-05 8.62943e-23)
(0.0292995 -4.19426e-06 2.56229e-21)
(0.0295281 4.05239e-05 2.41977e-21)
(0.0297296 9.1277e-05 1.80558e-23)
(0.0299072 0.000148729 3.35518e-23)
(0.030065 0.000213837 2.10264e-21)
(0.0302048 0.000287513 -6.18333e-23)
(0.0303231 0.00037046 0)
(0.0304145 0.000462919 1.4006e-23)
(0.0304734 0.000564795 0)
(0.030265 0.000585453 0)
(0.0300152 0.000597037 -6.32789e-23)
(0.0297261 0.000601161 2.55005e-23)
(0.0294047 0.000599488 -2.66535e-23)
(0.0290568 0.000593282 2.61082e-23)
(0.0286873 0.000583013 1.58922e-21)
(0.0282943 0.000568789 -1.51558e-21)
(0.0278734 0.000550445 5.4603e-24)
(0.0274221 0.000528093 1.37513e-21)
(0.0269383 0.000502169 8.43926e-24)
(0.026421 0.000472981 -1.19726e-23)
(0.0258683 0.00044095 1.11842e-21)
(0.0252792 0.00040672 0)
(0.0246527 0.000370792 4.07295e-22)
(0.0239875 0.00033376 -2.37084e-23)
(0.0232814 0.000296336 2.4146e-22)
(0.0225305 0.000259013 1.42095e-22)
(0.0217288 0.00022227 1.56379e-23)
(0.0208682 0.000186849 4.89454e-23)
(0.0199355 0.000152892 0)
(0.018912 0.00012124 1.02331e-22)
(0.0177692 9.20038e-05 -4.26664e-23)
(0.0164635 6.54893e-05 2.96978e-23)
(0.0149211 4.2745e-05 0)
(0.0130005 2.36831e-05 2.75295e-22)
(0.0103518 9.34745e-06 -9.21903e-23)
(0.00537787 2.63594e-06 0)
(0.00550676 1.27762e-06 -1.10719e-23)
(0.0106392 -7.21585e-06 -2.22369e-22)
(0.0135067 -1.81748e-05 -6.18812e-22)
(0.0157203 -3.30168e-05 -3.86252e-22)
(0.0175986 -5.16639e-05 6.76106e-22)
(0.0192521 -7.24601e-05 8.25201e-22)
(0.0207288 -9.44442e-05 -3.83073e-22)
(0.0220474 -0.000116448 -1.8064e-22)
(0.0232177 -0.000136512 -1.51228e-21)
(0.024246 -0.000153569 -2.35959e-21)
(0.0251417 -0.000166298 -2.94479e-22)
(0.0259179 -0.000173982 2.33746e-21)
(0.0265884 -0.000176182 -1.79634e-21)
(0.027168 -0.000172751 -3.8332e-21)
(0.0276713 -0.000163615 1.78595e-21)
(0.0281101 -0.000149022 -3.34648e-21)
(0.0284945 -0.00012891 9.76077e-23)
(0.0288319 -0.000103433 7.73656e-23)
(0.0291284 -7.26688e-05 -2.77797e-21)
(0.0293892 -3.64681e-05 -2.62608e-21)
(0.0296184 5.25605e-06 -2.40534e-21)
(0.0298188 5.27431e-05 2.27665e-21)
(0.0299932 0.000106431 0)
(0.0301443 0.000167089 0)
(0.0302756 0.000235748 -1.87197e-21)
(0.0303882 0.000313398 0)
(0.0304789 0.000400811 -4.7486e-22)
(0.0305423 0.000498286 -5.1886e-23)
(0.0305738 0.000605784 -1.24903e-23)
(0.0303954 0.000630097 0)
(0.0301775 0.000644614 0)
(0.0299216 0.000651037 2.55902e-23)
(0.0296337 0.000651187 -2.53145e-23)
(0.0293194 0.000646402 1.5716e-21)
(0.0289829 0.000637261 -1.48063e-21)
(0.0286226 0.000623827 -1.26064e-23)
(0.0282343 0.000605932 1.39148e-21)
(0.0278151 0.000583719 -5.41744e-24)
(0.0273633 0.000557586 1.02546e-23)
(0.0268774 0.000527837 2.24478e-21)
(0.0263561 0.000494987 -2.11207e-21)
(0.0257983 0.000459593 2.6023e-23)
(0.0252039 0.000422198 0)
(0.0245725 0.000383399 3.15511e-22)
(0.023903 0.000343959 -2.14923e-22)
(0.0231936 0.000304381 -1.32535e-22)
(0.0224402 0.000265184 -1.58413e-23)
(0.0216377 0.000227088 3.22115e-23)
(0.0207773 0.000190322 1.22458e-22)
(0.019846 0.000155586 -2.637e-23)
(0.0188249 0.000123077 0)
(0.0176859 9.31646e-05 4.2448e-23)
(0.0163866 6.66903e-05 3.91083e-23)
(0.0148523 4.33957e-05 -2.22087e-22)
(0.0129424 2.4055e-05 -1.2496e-22)
(0.0103119 9.95271e-06 -1.05474e-22)
(0.0053676 2.98753e-06 0)
(0.00549556 8.9074e-07 3.43893e-22)
(0.0106102 -7.86198e-06 -4.24234e-22)
(0.0134665 -1.87589e-05 -1.47799e-22)
(0.0156777 -3.40699e-05 3.71542e-22)
(0.0175569 -5.26086e-05 2.17297e-22)
(0.0192167 -7.41496e-05 0)
(0.0207016 -9.70281e-05 -9.3569e-22)
(0.0220322 -0.000119975 0)
(0.0232146 -0.000141651 1.31509e-21)
(0.024256 -0.000160329 0)
(0.0251641 -0.000175048 3.61843e-21)
(0.0259508 -0.000184835 -2.03502e-21)