/*--------------------------------*- C++ -*----------------------------------*\
  =========                 |
  \\      /  F ield         | OpenFOAM: The Open Source CFD Toolbox
   \\    /   O peration     | Website:  https://openfoam.org
    \\  /    A nd           | Version:  7
     \\/     M anipulation  |
\*---------------------------------------------------------------------------*/
FoamFile
{
    version     2.0;
    format      ascii;
    class       volScalarField;
    location    "20000";
    object      epsilon;
}
// * * * * * * * * * * * * * * * * * * * * * * * * * * * * * * * * * * * * * //

dimensions      [0 2 -3 0 0 0 0];

internalField   nonuniform List<scalar> 
10981
(
7.43495e-06
5.78547e-06
6.68466e-06
7.8876e-06
4.23195e-06
5.02042e-06
6.62007e-06
5.59271e-06
8.22968e-06
3.20388e-06
3.67548e-06
4.66015e-06
4.43657e-06
7.06425e-06
4.63787e-06
8.91635e-06
2.50051e-06
2.84758e-06
3.37804e-06
3.30862e-06
4.595e-06
3.75411e-06
6.80201e-06
3.80341e-06
1.01321e-05
2.00999e-06
2.28504e-06
2.55845e-06
2.61027e-06
3.18796e-06
3.04978e-06
4.10635e-06
2.68331e-06
6.47097e-06
3.16932e-06
1.23015e-05
1.66068e-06
1.88195e-06
2.02307e-06
2.14097e-06
2.38237e-06
2.53831e-06
2.81016e-06
2.47702e-06
3.78063e-06
1.77724e-06
6.66027e-06
2.59852e-06
1.26286e-05
1.40581e-06
1.58425e-06
1.65945e-06
1.80256e-06
1.88921e-06
2.15908e-06
2.12585e-06
2.30781e-06
2.60384e-06
1.6805e-06
3.82475e-06
1.26358e-06
6.66177e-06
2.05333e-06
1.15127e-05
1.21456e-06
1.35921e-06
1.40183e-06
1.54695e-06
1.5641e-06
1.86598e-06
1.71704e-06
2.13539e-06
1.99509e-06
1.72474e-06
2.61417e-06
1.08077e-06
3.85825e-06
9.49669e-07
6.12245e-06
1.59276e-06
9.99861e-06
1.06696e-06
1.18532e-06
1.21148e-06
1.34764e-06
1.33515e-06
1.63196e-06
1.44654e-06
1.96031e-06
1.62984e-06
1.76845e-06
1.99056e-06
1.1085e-06
2.6324e-06
7.33833e-07
3.64375e-06
7.26604e-07
5.31354e-06
1.23833e-06
8.54202e-06
9.49889e-07
1.04805e-06
1.06548e-06
1.18861e-06
1.16503e-06
1.44057e-06
1.25305e-06
1.78849e-06
1.3856e-06
1.77976e-06
1.61861e-06
1.19562e-06
1.99301e-06
7.03352e-07
2.51942e-06
5.29089e-07
3.25042e-06
5.64508e-07
4.48815e-06
9.78759e-07
7.24474e-06
8.54675e-07
9.37338e-07
9.49753e-07
1.05925e-06
1.03294e-06
1.28131e-06
1.10639e-06
1.62454e-06
1.20903e-06
1.75334e-06
1.37234e-06
1.29723e-06
1.61153e-06
7.43052e-07
1.9175e-06
4.76947e-07
2.29049e-06
3.97037e-07
2.80529e-06
4.47944e-07
3.75036e-06
7.94305e-07
6.1295e-06
7.75469e-07
8.46186e-07
8.55402e-07
9.52174e-07
9.2673e-07
1.14692e-06
9.90186e-07
1.47136e-06
1.07394e-06
1.69349e-06
1.19636e-06
1.3893e-06
1.36085e-06
8.21509e-07
1.55342e-06
4.7798e-07
1.7639e-06
3.43217e-07
2.01276e-06
3.08906e-07
2.38335e-06
3.65577e-07
3.12873e-06
6.67017e-07
5.23079e-06
7.08229e-07
7.69657e-07
7.76626e-07
8.62185e-07
8.3887e-07
1.0323e-06
8.94985e-07
1.3303e-06
9.66005e-07
1.60809e-06
1.06323e-06
1.45676e-06
1.18387e-06
9.22379e-07
1.31293e-06
5.10976e-07
1.43967e-06
3.2972e-07
1.57044e-06
2.59709e-07
1.73684e-06
2.49315e-07
2.01326e-06
3.08804e-07
2.63062e-06
5.75314e-07
4.5672e-06
6.50142e-07
7.04256e-07
7.095e-07
7.85432e-07
7.64531e-07
9.33758e-07
8.14943e-07
1.20188e-06
8.76902e-07
1.50555e-06
9.57866e-07
1.49125e-06
1.05182e-06
1.03213e-06
1.14345e-06
5.70413e-07
1.22324e-06
3.38588e-07
1.29403e-06
2.42058e-07
1.37181e-06
2.05706e-07
1.48603e-06
2.09044e-07
1.70574e-06
2.68383e-07
2.25156e-06
5.08993e-07
4.03958e-06
5.9918e-07
6.47474e-07
6.51329e-07
7.19105e-07
7.00442e-07
8.48319e-07
7.46233e-07
1.08595e-06
8.01483e-07
1.39351e-06
8.7146e-07
1.49035e-06
9.48768e-07
1.13797e-06
1.01774e-06
6.53089e-07
1.06994e-06
3.65148e-07
1.10749e-06
2.40842e-07
1.14103e-06
1.87609e-07
1.18619e-06
1.70049e-07
1.27121e-06
1.80985e-07
1.46337e-06
2.39726e-07
1.95295e-06
4.6274e-07
3.60688e-06
5.53883e-07
5.97459e-07
6.00179e-07
6.61068e-07
6.44376e-07
7.73733e-07
6.86281e-07
9.82052e-07
7.36317e-07
1.27841e-06
7.98603e-07
1.45637e-06
8.65275e-07
1.22759e-06
9.20566e-07
7.53301e-07
9.56284e-07
4.09224e-07
9.74495e-07
2.51563e-07
9.83812e-07
1.82311e-07
9.95111e-07
1.52497e-07
1.02335e-06
1.45652e-07
1.09715e-06
1.61484e-07
1.27083e-06
2.20301e-07
1.71083e-06
4.32154e-07
3.24224e-06
5.13191e-07
5.52859e-07
5.54652e-07
6.09711e-07
5.94713e-07
7.08159e-07
6.33282e-07
8.89388e-07
6.79108e-07
1.16498e-06
7.35726e-07
1.39487e-06
7.95474e-07
1.29092e-06
8.4269e-07
8.62855e-07
8.68802e-07
4.72349e-07
8.75668e-07
2.73464e-07
8.711e-07
1.85692e-07
8.64053e-07
1.45468e-07
8.64667e-07
1.28861e-07
8.88645e-07
1.289e-07
9.57298e-07
1.48429e-07
1.11404e-06
2.07978e-07
1.50985e-06
4.13166e-07
2.92712e-06
4.7629e-07
5.12672e-07
5.13729e-07
5.63801e-07
5.50255e-07
6.50139e-07
5.8595e-07
8.07058e-07
6.28249e-07
1.05666e-06
6.80434e-07
1.31301e-06
7.35551e-07
1.32173e-06
7.78233e-07
9.72035e-07
7.99274e-07
5.55028e-07
7.99769e-07
3.07679e-07
7.87179e-07
1.96616e-07
7.69643e-07
1.45232e-07
7.55455e-07
1.21055e-07
7.54951e-07
1.12769e-07
7.79187e-07
1.177e-07
8.42765e-07
1.40202e-07
9.83674e-07
2.00708e-07
1.33877e-06
4.00246e-07
2.64116e-06
4.42592e-07
4.76142e-07
4.76623e-07
5.22402e-07
5.10118e-07
5.98445e-07
5.43289e-07
7.34041e-07
5.82575e-07
9.55719e-07
6.31121e-07
1.21831e-06
6.82935e-07
1.31831e-06
7.23302e-07
1.06965e-06
7.42273e-07
6.537e-07
7.39819e-07
3.56501e-07
7.22805e-07
2.15423e-07
6.99236e-07
1.50531e-07
6.76548e-07
1.18852e-07
6.62792e-07
1.04561e-07
6.64992e-07
1.01993e-07
6.89058e-07
1.10563e-07
7.47147e-07
1.35351e-07
8.7279e-07
1.96029e-07
1.18844e-06
3.91735e-07
2.35589e-06
4.1163e-07
4.42713e-07
4.42754e-07
4.84784e-07
4.73616e-07
5.5208e-07
5.04553e-07
6.69264e-07
5.41207e-07
8.6335e-07
5.86644e-07
1.11756e-06
6.35905e-07
1.28321e-06
6.75294e-07
1.14501e-06
6.94185e-07
7.61848e-07
6.91174e-07
4.22686e-07
6.72241e-07
2.43481e-07
6.45353e-07
1.61272e-07
6.1766e-07
1.20986e-07
5.96168e-07
1.01169e-07
5.86137e-07
9.34949e-08
5.90487e-07
9.503e-08
6.13497e-07
1.06269e-07
6.65671e-07
1.32374e-07
7.7597e-07
1.92908e-07
1.0481e-06
3.86042e-07
2.08413e-06
3.83041e-07
4.11941e-07
4.11658e-07
4.50384e-07
4.40222e-07
5.10238e-07
4.69162e-07
6.11709e-07
5.03469e-07
7.79951e-07
5.4614e-07
1.01637e-06
5.93256e-07
1.22214e-06
6.32375e-07
1.19011e-06
6.52473e-07
8.70599e-07
6.50621e-07
5.06975e-07
6.31639e-07
2.83062e-07
6.03242e-07
1.78131e-07
5.72682e-07
1.27151e-07
5.46457e-07
1.01351e-07
5.29098e-07
8.92935e-08
5.22407e-07
8.62568e-08
5.27851e-07
9.07413e-08
5.4898e-07
1.03699e-07
5.94584e-07
1.30472e-07
6.87284e-07
1.90515e-07
9.18843e-07
3.81402e-07
1.83211e-06
3.56546e-07
3.83486e-07
3.8297e-07
4.18755e-07
4.09513e-07
4.72263e-07
4.36657e-07
5.60439e-07
4.68848e-07
7.05376e-07
5.08982e-07
9.18826e-07
5.54142e-07
1.14254e-06
5.93281e-07
1.20115e-06
6.15331e-07
9.69003e-07
6.15865e-07
6.05612e-07
5.98268e-07
3.37087e-07
5.69768e-07
2.02478e-07
5.37744e-07
1.37641e-07
5.08573e-07
1.04696e-07
4.86561e-07
8.8169e-08
4.73133e-07
8.14477e-08
4.68683e-07
8.17016e-08
4.74256e-07
8.81787e-08
4.92682e-07
1.0219e-07
5.29837e-07
1.29124e-07
6.05889e-07
1.88152e-07
8.02321e-07
3.76833e-07
1.60139e-06
3.31914e-07
3.57078e-07
3.56404e-07
3.89544e-07
3.81147e-07
4.37608e-07
4.06664e-07
5.14573e-07
4.36929e-07
6.39094e-07
4.7471e-07
8.27655e-07
5.17958e-07
1.05204e-06
5.57135e-07
1.179e-06
5.81461e-07
1.04606e-06
5.85217e-07
7.12631e-07
5.70139e-07
4.08536e-07
5.42682e-07
2.36401e-07
5.10234e-07
1.53249e-07
4.79306e-07
1.11278e-07
4.54207e-07
8.96455e-08
4.36379e-07
7.93913e-08
4.25863e-07
7.64172e-08
4.22658e-07
7.89479e-08
4.2745e-07
8.67463e-08
4.41569e-07
1.0133e-07
4.70372e-07
1.28006e-07
5.32448e-07
1.85628e-07
6.9848e-07
3.729e-07
1.39463e-06
3.08957e-07
3.32496e-07
3.31723e-07
3.6247e-07
3.54849e-07
4.05844e-07
3.78882e-07
4.73369e-07
4.0737e-07
5.80345e-07
4.42953e-07
7.44391e-07
4.84285e-07
9.57482e-07
5.23333e-07
1.12853e-06
5.4995e-07
1.09313e-06
5.57416e-07
8.18768e-07
5.45735e-07
4.96448e-07
5.20301e-07
2.82731e-07
4.88327e-07
1.753e-07
4.56485e-07
1.21553e-07
4.29315e-07
9.3664e-08
4.08467e-07
7.95646e-08
3.93929e-07
7.36742e-08
3.85309e-07
7.33236e-08
3.82422e-07
7.74294e-08
3.85085e-07
8.60776e-08
3.94538e-07
1.00892e-07
4.16462e-07
1.27085e-07
4.67095e-07
1.83468e-07
6.0752e-07
3.71952e-07
1.21634e-06
2.87509e-07
3.09566e-07
3.08733e-07
3.37306e-07
3.30393e-07
3.76613e-07
3.53059e-07
4.36181e-07
3.79905e-07
5.28288e-07
4.13415e-07
6.6958e-07
4.52814e-07
8.64239e-07
4.91473e-07
1.05712e-06
5.20159e-07
1.10591e-06
5.31519e-07
9.12672e-07
5.23894e-07
5.96746e-07
5.01334e-07
3.44621e-07
4.70638e-07
2.0574e-07
4.38593e-07
1.36362e-07
4.10063e-07
1.0047e-07
3.87052e-07
8.18187e-08
3.69697e-07
7.29137e-08
3.57472e-07
7.0092e-08
3.49851e-07
7.15986e-08
3.46091e-07
7.67927e-08
3.46064e-07
8.59798e-08
3.51709e-07
1.00854e-07
3.6829e-07
1.26644e-07
4.09908e-07
1.82708e-07
5.30493e-07
3.74656e-07
1.0721e-06
2.67434e-07
2.88128e-07
2.87263e-07
3.13861e-07
3.07593e-07
3.49618e-07
3.28986e-07
4.02446e-07
3.54307e-07
4.82061e-07
3.85864e-07
6.03096e-07
4.23314e-07
7.76028e-07
4.61296e-07
9.72927e-07
4.91662e-07
1.08515e-06
5.06838e-07
9.8322e-07
5.03696e-07
7.02302e-07
4.84746e-07
4.23233e-07
4.56067e-07
2.47207e-07
4.24476e-07
1.57001e-07
3.95164e-07
1.10604e-07
3.70594e-07
8.62615e-08
3.51158e-07
7.39218e-08
3.36379e-07
6.86705e-08
3.25597e-07
6.80469e-08
3.17897e-07
7.08802e-08
3.12625e-07
7.68449e-08
3.10376e-07
8.64106e-08
3.13261e-07
1.01383e-07
3.25982e-07
1.27285e-07
3.6132e-07
1.83955e-07
4.68593e-07
3.81657e-07
9.56854e-07
2.48621e-07
2.68056e-07
2.67172e-07
2.91976e-07
2.86281e-07
3.24615e-07
3.06491e-07
3.71711e-07
3.30385e-07
4.40877e-07
3.60097e-07
5.44366e-07
3.95598e-07
6.95061e-07
4.32635e-07
8.83477e-07
4.64204e-07
1.03597e-06
4.82898e-07
1.02221e-06
4.84425e-07
8.02726e-07
4.69677e-07
5.15962e-07
4.43737e-07
3.02822e-07
4.13233e-07
1.85324e-07
3.83666e-07
1.24937e-07
3.5799e-07
9.32313e-08
3.36972e-07
7.67106e-08
3.20285e-07
6.8801e-08
3.07248e-07
6.61788e-08
2.96931e-07
6.71498e-08
2.8849e-07
7.09624e-08
2.81925e-07
7.75238e-08
2.78207e-07
8.7466e-08
2.79352e-07
1.02854e-07
2.89861e-07
1.29519e-07
3.2207e-07
1.87973e-07
4.20022e-07
3.95276e-07
8.6675e-07
2.30964e-07
2.49238e-07
2.48348e-07
2.71512e-07
2.66321e-07
3.01402e-07
2.85426e-07
3.43595e-07
3.07982e-07
4.0403e-07
3.35949e-07
4.92633e-07
3.69523e-07
6.22295e-07
4.05375e-07
7.94728e-07
4.37649e-07
9.66272e-07
4.594e-07
1.02633e-06
4.65542e-07
8.86144e-07
4.55429e-07
6.17428e-07
4.32892e-07
3.7464e-07
4.04108e-07
2.23837e-07
3.74811e-07
1.44758e-07
3.48439e-07
1.0332e-07
3.26212e-07
8.14809e-08
3.08029e-07
7.04291e-08
2.93294e-07
6.57075e-08
2.81109e-07
6.50029e-08
2.70582e-07
6.71686e-08
2.6145e-07
7.17599e-08
2.54147e-07
7.88804e-08
2.49723e-07
8.94053e-08
2.50263e-07
1.05674e-07
2.60466e-07
1.33908e-07
2.91451e-07
1.96172e-07
3.83338e-07
4.19417e-07
8.01278e-07
2.14369e-07
2.31571e-07
2.30683e-07
2.52349e-07
2.47601e-07
2.79801e-07
2.65657e-07
3.17778e-07
2.86963e-07
3.70895e-07
3.13282e-07
4.47021e-07
3.44971e-07
5.57814e-07
3.79454e-07
7.10798e-07
4.11941e-07
8.84676e-07
4.36182e-07
9.97732e-07
4.46676e-07
9.4205e-07
4.41431e-07
7.18479e-07
4.22871e-07
4.61031e-07
3.96461e-07
2.75578e-07
3.67976e-07
1.71887e-07
3.41311e-07
1.17431e-07
3.18183e-07
8.86295e-08
2.98809e-07
7.36598e-08
2.82725e-07
6.65341e-08
2.69122e-07
6.41374e-08
2.57125e-07
6.48735e-08
2.46332e-07
6.79932e-08
2.36901e-07
7.32899e-08
2.29457e-07
8.10985e-08
2.25181e-07
9.25442e-08
2.26443e-07
1.10274e-07
2.37574e-07
1.41328e-07
2.6871e-07
2.1054e-07
3.58368e-07
4.59574e-07
7.63814e-07
1.98758e-07
2.14967e-07
2.14082e-07
2.34383e-07
2.30026e-07
2.59667e-07
2.4708e-07
2.94e-07
2.67209e-07
3.40965e-07
2.91973e-07
4.06695e-07
3.21832e-07
5.01117e-07
3.54816e-07
6.3403e-07
3.8708e-07
7.98921e-07
4.13184e-07
9.42913e-07
4.27602e-07
9.6407e-07
4.27244e-07
8.07395e-07
4.13115e-07
5.57806e-07
3.89707e-07
3.42844e-07
3.62606e-07
2.08766e-07
3.36084e-07
1.36874e-07
3.12361e-07
9.87908e-08
2.92035e-07
7.87546e-08
2.74847e-07
6.86977e-08
2.60107e-07
6.4425e-08
2.46998e-07
6.37692e-08
2.3504e-07
6.56495e-08
2.24246e-07
6.96117e-08
2.15006e-07
7.56798e-08
2.08096e-07
8.4421e-08
2.04962e-07
9.72103e-08
2.07867e-07
1.17208e-07
2.2074e-07
1.52611e-07
2.53809e-07
2.32019e-07
3.46452e-07
5.26969e-07
7.56136e-07
1.84059e-07
1.99345e-07
1.98465e-07
2.17517e-07
2.13498e-07
2.40865e-07
2.29622e-07
2.72028e-07
2.48623e-07
3.13792e-07
2.71922e-07
3.70897e-07
3.00021e-07
4.5145e-07
3.31418e-07
5.65435e-07
3.63089e-07
7.14935e-07
3.90441e-07
8.70653e-07
4.08206e-07
9.51559e-07
4.12561e-07
8.72567e-07
4.03153e-07
6.56839e-07
3.8332e-07
4.2457e-07
3.582e-07
2.58362e-07
3.32293e-07
1.63477e-07
3.08303e-07
1.12907e-07
2.87253e-07
8.61571e-08
2.6915e-07
7.23665e-08
2.5346e-07
6.58617e-08
2.39453e-07
6.37112e-08
2.26622e-07
6.4423e-08
2.1488e-07
6.72896e-08
2.0448e-07
7.21044e-08
1.95981e-07
7.91116e-08
1.90396e-07
8.90939e-08
1.89146e-07
1.03761e-07
1.94265e-07
1.26792e-07
2.09893e-07
1.6701e-07
2.47297e-07
2.58847e-07
3.47536e-07
5.94499e-07
7.86033e-07
1.7021e-07
1.84636e-07
1.83759e-07
2.01668e-07
1.97939e-07
2.23283e-07
2.13186e-07
2.51676e-07
2.31116e-07
2.89019e-07
2.5303e-07
3.38947e-07
2.79448e-07
4.07922e-07
3.09225e-07
5.05005e-07
3.40009e-07
6.36507e-07
3.6803e-07
7.8982e-07
3.88494e-07
9.09313e-07
3.97198e-07
9.05662e-07
3.92618e-07
7.46839e-07
3.76833e-07
5.17229e-07
3.54295e-07
3.22832e-07
3.29518e-07
1.99682e-07
3.05627e-07
1.3233e-07
2.84098e-07
9.65454e-08
2.6525e-07
7.78506e-08
2.48751e-07
6.85503e-08
2.33981e-07
6.46665e-08
2.20446e-07
6.41614e-08
2.0799e-07
6.60249e-08
1.96778e-07
6.98342e-08
1.87235e-07
7.56015e-08
1.80128e-07
8.3767e-08
1.76479e-07
9.53441e-08
1.77557e-07
1.12269e-07
1.85516e-07
1.38005e-07
2.05111e-07
1.82751e-07
2.47546e-07
2.85392e-07
3.57238e-07
6.57307e-07
8.07676e-07
1.57163e-07
1.7078e-07
1.69903e-07
1.86761e-07
1.83278e-07
2.06816e-07
1.97694e-07
2.32778e-07
2.14612e-07
2.66339e-07
2.35219e-07
3.1028e-07
2.60036e-07
3.69661e-07
2.88191e-07
4.52195e-07
3.17873e-07
5.65652e-07
3.46057e-07
7.07743e-07
3.68549e-07
8.45696e-07
3.81082e-07
9.03956e-07
3.81241e-07
8.15805e-07
3.69844e-07
6.13313e-07
3.50446e-07
4.01413e-07
3.27353e-07
2.48413e-07
3.03979e-07
1.58934e-07
2.82245e-07
1.10911e-07
2.62835e-07
8.56399e-08
2.45648e-07
7.27077e-08
2.3021e-07
6.66945e-08
2.16072e-07
6.48143e-08
2.03037e-07
6.56634e-08
1.91206e-07
6.85781e-08
1.80917e-07
7.33677e-08
1.72776e-07
8.02335e-08
1.67581e-07
8.97864e-08
1.66229e-07
1.03128e-07
1.70023e-07
1.21785e-07
1.81405e-07
1.49629e-07
2.04388e-07
1.98886e-07
2.50802e-07
3.10042e-07
3.65725e-07
7.16265e-07
8.23342e-07
1.44873e-07
1.57725e-07
1.56847e-07
1.72731e-07
1.69456e-07
1.91376e-07
1.8308e-07
2.15193e-07
1.99037e-07
2.45499e-07
2.18412e-07
2.8442e-07
2.41713e-07
3.35876e-07
2.68271e-07
4.0617e-07
2.96703e-07
5.02961e-07
3.24631e-07
6.29533e-07
3.48506e-07
7.70128e-07
3.6425e-07
8.70765e-07
3.68864e-07
8.54362e-07
3.62026e-07
7.01885e-07
3.46255e-07
4.908e-07
3.25406e-07
3.11411e-07
3.0302e-07
1.95209e-07
2.81407e-07
1.30663e-07
2.61637e-07
9.64652e-08
2.43888e-07
7.86912e-08
2.27867e-07
6.99479e-08
2.13189e-07
6.64129e-08
1.99655e-07
6.61449e-08
1.87312e-07
6.81826e-08
1.76438e-07
7.2126e-08
1.67531e-07
7.79785e-08
1.6124e-07
8.60827e-08
1.58254e-07
9.70767e-08
1.59436e-07
1.11653e-07
1.66161e-07
1.31458e-07
1.79959e-07
1.61754e-07
2.0499e-07
2.14339e-07
2.54567e-07
3.32753e-07
3.72708e-07
7.71978e-07
8.36446e-07
1.33312e-07
1.45428e-07
1.44548e-07
1.59524e-07
1.56423e-07
1.76886e-07
1.69287e-07
1.98799e-07
1.84329e-07
2.26289e-07
2.02541e-07
2.60977e-07
2.24409e-07
3.05878e-07
2.49417e-07
3.66006e-07
2.76512e-07
4.48186e-07
3.03852e-07
5.58086e-07
3.28524e-07
6.90926e-07
3.46815e-07
8.13889e-07
3.55441e-07
8.58539e-07
3.53144e-07
7.70907e-07
3.41367e-07
5.837e-07
3.23298e-07
3.88047e-07
3.02406e-07
2.44055e-07
2.81296e-07
1.57746e-07
2.61411e-07
1.11387e-07
2.4325e-07
8.70426e-08
2.26726e-07
7.46913e-08
2.11562e-07
6.9066e-08
1.97575e-07
6.74827e-08
1.84781e-07
6.85831e-08
1.73412e-07
7.17243e-08
1.63887e-07
7.67212e-08
1.56752e-07
8.37104e-08
1.52559e-07
9.30408e-08
1.51915e-07
1.05003e-07
1.55623e-07
1.20288e-07
1.64179e-07
1.41579e-07
1.79208e-07
1.7361e-07
2.06583e-07
2.2881e-07
2.58158e-07
3.53711e-07
3.7889e-07
8.24536e-07
8.48797e-07
1.22461e-07
1.33862e-07
1.32978e-07
1.47094e-07
1.44141e-07
1.63279e-07
1.56269e-07
1.83492e-07
1.70436e-07
2.08527e-07
1.87547e-07
2.3962e-07
2.08063e-07
2.79085e-07
2.31581e-07
3.3084e-07
2.57296e-07
4.00612e-07
2.83803e-07
4.94594e-07
3.08764e-07
6.14148e-07
3.28943e-07
7.42942e-07
3.41022e-07
8.307e-07
3.43067e-07
8.10616e-07
3.35493e-07
6.69345e-07
3.2068e-07
4.74901e-07
3.01801e-07
3.06566e-07
2.81622e-07
1.94697e-07
2.61923e-07
1.31903e-07
2.4353e-07
9.85582e-08
2.26605e-07
8.13314e-08
2.11009e-07
7.29734e-08
1.96601e-07
6.9757e-08
1.83394e-07
6.97803e-08
1.71578e-07
7.20947e-08
1.61517e-07
7.63094e-08
1.53679e-07
8.2382e-08
1.48523e-07
9.04574e-08
1.46492e-07
1.00611e-07
1.48055e-07
1.13067e-07
1.53239e-07
1.29286e-07
1.62659e-07
1.5159e-07
1.79581e-07
1.84868e-07
2.08534e-07
2.42285e-07
2.6162e-07
3.73005e-07
3.84609e-07
8.73744e-07
8.60612e-07
1.12312e-07
1.23004e-07
1.22119e-07
1.35409e-07
1.32582e-07
1.505e-07
1.43991e-07
1.69182e-07
1.57316e-07
1.92063e-07
1.73379e-07
2.2008e-07
1.92615e-07
2.55004e-07
2.14708e-07
2.99873e-07
2.39042e-07
3.59313e-07
2.64546e-07
4.39103e-07
2.89384e-07
5.43429e-07
3.10827e-07
6.66814e-07
3.25738e-07
7.7823e-07
3.3176e-07
8.16565e-07
3.28427e-07
7.35796e-07
3.17234e-07
5.64542e-07
3.00873e-07
3.8216e-07
2.8209e-07
2.44302e-07
2.6293e-07
1.60066e-07
2.44534e-07
1.14382e-07
2.27337e-07
9.04732e-08
2.11375e-07
7.84485e-08
1.96582e-07
7.31229e-08
1.82983e-07
7.18364e-08
1.70748e-07
7.32316e-08
1.60198e-07
7.66735e-08
1.51737e-07
8.19399e-08
1.45764e-07
8.9013e-08
1.42608e-07
9.78371e-08
1.42536e-07
1.08378e-07
1.45365e-07
1.21413e-07
1.51256e-07
1.3823e-07
1.6227e-07
1.6118e-07
1.80567e-07
1.95446e-07
2.10664e-07
2.5476e-07
2.6496e-07
3.90658e-07
3.89989e-07
9.19564e-07
8.72313e-07
1.02861e-07
1.12846e-07
1.11962e-07
1.24445e-07
1.21731e-07
1.38506e-07
1.32429e-07
1.55794e-07
1.44933e-07
1.76769e-07
1.59992e-07
2.02135e-07
1.78014e-07
2.33246e-07
1.98748e-07
2.7244e-07
2.21716e-07
3.2337e-07
2.4611e-07
3.90995e-07
2.70511e-07
4.8039e-07
2.92675e-07
5.92189e-07
3.09772e-07
7.10791e-07
3.19283e-07
7.90771e-07
3.20049e-07
7.73399e-07
3.12707e-07
6.46173e-07
2.99309e-07
4.66974e-07
2.82405e-07
3.07229e-07
2.6418e-07
1.98513e-07
2.46062e-07
1.36122e-07
2.28761e-07
1.02995e-07
2.12524e-07
8.59588e-08
1.97392e-07
7.78291e-08
1.83423e-07
7.48763e-08
1.70787e-07
7.5183e-08
1.59773e-07
7.7801e-08
1.5074e-07
8.23067e-08
1.44037e-07
8.85325e-08
1.39922e-07
9.63243e-08
1.38538e-07
1.05486e-07
1.39614e-07
1.1636e-07
1.43096e-07
1.29715e-07
1.50363e-07
1.46844e-07
1.62621e-07
1.70246e-07
1.81903e-07
2.05322e-07
2.12868e-07
2.66315e-07
2.68208e-07
4.06878e-07
3.95122e-07
9.61741e-07
8.83885e-07
9.41161e-08
1.03385e-07
1.02508e-07
1.14186e-07
1.11579e-07
1.27264e-07
1.21568e-07
1.43267e-07
1.33265e-07
1.62539e-07
1.47353e-07
1.85599e-07
1.64214e-07
2.1348e-07
1.83652e-07
2.47976e-07
2.05289e-07
2.91927e-07
2.28515e-07
3.49395e-07
2.52241e-07
4.25296e-07
2.74669e-07
5.2314e-07
2.93342e-07
6.3756e-07
3.05772e-07
7.40497e-07
3.10341e-07
7.77869e-07
3.06912e-07
7.08064e-07
2.96829e-07
5.53162e-07
2.82267e-07
3.82444e-07
2.6541e-07
2.49391e-07
2.479e-07
1.65951e-07
2.30716e-07
1.20149e-07
2.14326e-07
9.61867e-08
1.98917e-07
8.42469e-08
1.84613e-07
7.91034e-08
1.71592e-07
7.80543e-08
1.60129e-07
7.9731e-08
1.50555e-07
8.34643e-08
1.43178e-07
8.89258e-08
1.38215e-07
9.58698e-08
1.35733e-07
1.03981e-07
1.3544e-07
1.13298e-07
1.3717e-07
1.24286e-07
1.4186e-07
1.37732e-07
1.50269e-07
1.5502e-07
1.63427e-07
1.78768e-07
1.83435e-07
2.14513e-07
2.15116e-07
2.76926e-07
2.71362e-07
4.21556e-07
4.00032e-07
1.00055e-06
8.95366e-07
8.60876e-08
9.46252e-08
9.37625e-08
1.04629e-07
1.02129e-07
1.16756e-07
1.11404e-07
1.31558e-07
1.22299e-07
1.49287e-07
1.35436e-07
1.70321e-07
1.5118e-07
1.95443e-07
1.69375e-07
2.26022e-07
1.89722e-07
2.64248e-07
2.11755e-07
3.1335e-07
2.34644e-07
3.77628e-07
2.5697e-07
4.61528e-07
2.76669e-07
5.65458e-07
2.91422e-07
6.75435e-07
2.99367e-07
7.51454e-07
2.99753e-07
7.4106e-07
2.93204e-07
6.2978e-07
2.81397e-07
4.65415e-07
2.66353e-07
3.13259e-07
2.49825e-07
2.06495e-07
2.33023e-07
1.43674e-07
2.16647e-07
1.10111e-07
2.01056e-07
9.29189e-08
1.86462e-07
8.48211e-08
1.7308e-07
8.20163e-08
1.61185e-07
8.25535e-08
1.5109e-07
8.54425e-08
1.4308e-07
9.01635e-08
1.37345e-07
9.63673e-08
1.33913e-07
1.03632e-07
1.32502e-07
1.11763e-07
1.32888e-07
1.21033e-07
1.35697e-07
1.31949e-07
1.41441e-07
1.45363e-07
1.50694e-07
1.6273e-07
1.64511e-07
1.8671e-07
1.85097e-07
2.22981e-07
2.1737e-07
2.86584e-07
2.74424e-07
4.34823e-07
4.04743e-07
1.03602e-06
9.0684e-07
7.87875e-08
8.65786e-08
8.57377e-08
9.57781e-08
9.33906e-08
1.0697e-07
1.01941e-07
1.2063e-07
1.12031e-07
1.36945e-07
1.24232e-07
1.56177e-07
1.38888e-07
1.78916e-07
1.55883e-07
2.06203e-07
1.74976e-07
2.39714e-07
1.95814e-07
2.8197e-07
2.17759e-07
3.36527e-07
2.39704e-07
4.07747e-07
2.59955e-07
4.98723e-07
2.76451e-07
6.04791e-07
2.87268e-07
7.01607e-07
2.91217e-07
7.41595e-07
2.88275e-07
6.8544e-07
2.79543e-07
5.47691e-07
2.66736e-07
3.88351e-07
2.51595e-07
2.59283e-07
2.35491e-07
1.75871e-07
2.19344e-07
1.29112e-07
2.03699e-07
1.04624e-07
1.88885e-07
9.24727e-08
1.7518e-07
8.73257e-08
1.62876e-07
8.64174e-08
1.52279e-07
8.83194e-08
1.43666e-07
9.22671e-08
1.37214e-07
9.77765e-08
1.3294e-07
1.04314e-07
1.30583e-07
1.11493e-07
1.29891e-07
1.19444e-07
1.31254e-07
1.28509e-07
1.35037e-07
1.39251e-07
1.41583e-07
1.52564e-07
1.51457e-07
1.69923e-07
1.65785e-07
1.94046e-07
1.86832e-07
2.30726e-07
2.19613e-07
2.95346e-07
2.77392e-07
4.46747e-07
4.09291e-07
1.0683e-06
9.18289e-07
7.22246e-08
7.92553e-08
7.84459e-08
8.76408e-08
8.53747e-08
9.79047e-08
9.31907e-08
1.10465e-07
1.02469e-07
1.2546e-07
1.13736e-07
1.43069e-07
1.27323e-07
1.63725e-07
1.43147e-07
1.88217e-07
1.61021e-07
2.17821e-07
1.80669e-07
2.54477e-07
2.01604e-07
3.01026e-07
2.22963e-07
3.6131e-07
2.43382e-07
4.39275e-07
2.61087e-07
5.35442e-07
2.74232e-07
6.38039e-07
2.81374e-07
7.12615e-07
2.81962e-07
7.1187e-07
2.76505e-07
6.18165e-07
2.66309e-07
4.69216e-07
2.52964e-07
3.24485e-07
2.37913e-07
2.18978e-07
2.22256e-07
1.55063e-07
2.06727e-07
1.20466e-07
1.91798e-07
1.02692e-07
1.77827e-07
9.43533e-08
1.65146e-07
9.15446e-08
1.54072e-07
9.2227e-08
1.44883e-07
9.53041e-08
1.37759e-07
1.0011e-07
1.32719e-07
1.05975e-07
1.29537e-07
1.12343e-07
1.27944e-07
1.19229e-07
1.28148e-07
1.26862e-07
1.30413e-07
1.35634e-07
1.34962e-07
1.46138e-07
1.42105e-07
1.59284e-07
1.52455e-07
1.76575e-07
1.67179e-07
2.00776e-07
1.88608e-07
2.3778e-07
2.21828e-07
3.03254e-07
2.80275e-07
4.57418e-07
4.13685e-07
1.09744e-06
9.29851e-07
6.64045e-08
7.26648e-08
7.18961e-08
8.02275e-08
7.80951e-08
8.95648e-08
8.51655e-08
1.01053e-07
9.36243e-08
1.14797e-07
1.03956e-07
1.30919e-07
1.16482e-07
1.4973e-07
1.31155e-07
1.7182e-07
1.47832e-07
1.98153e-07
1.663e-07
2.30213e-07
1.86182e-07
2.70219e-07
2.06807e-07
3.21356e-07
2.27089e-07
3.87495e-07
2.45539e-07
4.71494e-07
2.60477e-07
5.69768e-07
2.70361e-07
6.61982e-07
2.74261e-07
7.06681e-07
2.72145e-07
6.66019e-07
2.64845e-07
5.46681e-07
2.53683e-07
3.99359e-07
2.40065e-07
2.7418e-07
2.25205e-07
1.90294e-07
2.10008e-07
1.41967e-07
1.95103e-07
1.16374e-07
1.80952e-07
1.03628e-07
1.67943e-07
9.8256e-08
1.56426e-07
9.7363e-08
1.46691e-07
9.93933e-08
1.38933e-07
1.03428e-07
1.33187e-07
1.08621e-07
1.29265e-07
1.14247e-07
1.26891e-07
1.20224e-07
1.26131e-07
1.26691e-07
1.27173e-07
1.33926e-07
1.3017e-07
1.42346e-07
1.35297e-07
1.52562e-07
1.42895e-07
1.65501e-07
1.53609e-07
1.82686e-07
1.68653e-07
2.06918e-07
1.90401e-07
2.44169e-07
2.24012e-07
3.10354e-07
2.83075e-07
4.66899e-07
4.17949e-07
1.12357e-06
9.41212e-07
6.13275e-08
6.68132e-08
6.60933e-08
7.35456e-08
7.15611e-08
8.19555e-08
7.78797e-08
9.23886e-08
8.55134e-08
1.04934e-07
9.49059e-08
1.19671e-07
1.06373e-07
1.3682e-07
1.19903e-07
1.56818e-07
1.35395e-07
1.80387e-07
1.52686e-07
2.08648e-07
1.71486e-07
2.43314e-07
1.91273e-07
2.86931e-07
2.11182e-07
3.42892e-07
2.2999e-07
4.14756e-07
2.46222e-07
5.03353e-07
2.58363e-07
5.99384e-07
2.65245e-07
6.73863e-07
2.66398e-07
6.84258e-07
2.62168e-07
6.09586e-07
2.53523e-07
4.77365e-07
2.41716e-07
3.40793e-07
2.27993e-07
2.36523e-07
2.13392e-07
1.71136e-07
1.98692e-07
1.34759e-07
1.84476e-07
1.15895e-07
1.71215e-07
1.07003e-07
1.59302e-07
1.04011e-07
1.49058e-07
1.04715e-07
1.40702e-07
1.07841e-07
1.34299e-07
1.12306e-07
1.297e-07
1.17203e-07
1.26628e-07
1.2235e-07
1.25038e-07
1.27816e-07
1.25059e-07
1.33785e-07
1.268e-07
1.40568e-07
1.30359e-07
1.486e-07
1.35927e-07
1.58504e-07
1.43871e-07
1.71214e-07
1.54871e-07
1.88268e-07
1.70175e-07
2.12491e-07
1.92198e-07
2.49925e-07
2.26159e-07
3.16688e-07
2.85793e-07
4.75269e-07
4.22044e-07
1.14694e-06
9.52429e-07
5.69893e-08
6.1702e-08
6.10372e-08
6.76031e-08
6.57778e-08
7.50864e-08
7.13432e-08
8.44757e-08
7.81481e-08
9.58576e-08
8.66006e-08
1.09285e-07
9.70092e-08
1.24912e-07
1.09398e-07
1.43059e-07
1.23707e-07
1.64257e-07
1.39819e-07
1.8935e-07
1.57515e-07
2.19639e-07
1.76384e-07
2.57117e-07
1.9574e-07
3.04591e-07
2.14589e-07
3.65493e-07
2.31673e-07
4.42571e-07
2.45582e-07
5.33454e-07
2.55045e-07
6.21794e-07
2.5927e-07
6.72075e-07
2.5816e-07
6.48027e-07
2.5228e-07
5.48635e-07
2.42636e-07
4.14859e-07
2.30408e-07
2.94374e-07
2.16704e-07
2.09942e-07
2.02434e-07
1.5951e-07
1.88311e-07
1.32178e-07
1.74899e-07
1.18418e-07
1.62658e-07
1.12568e-07
1.51953e-07
1.11527e-07
1.43039e-07
1.13518e-07
1.36021e-07
1.17135e-07
1.30793e-07
1.21254e-07
1.27083e-07
1.25594e-07
1.24757e-07
1.30146e-07
1.23897e-07
1.35018e-07
1.24584e-07
1.40442e-07
1.26872e-07
1.46747e-07
1.30863e-07
1.54378e-07
1.36767e-07
1.63961e-07
1.44978e-07
1.76432e-07
1.56205e-07
1.93336e-07
1.71725e-07
2.17519e-07
1.93986e-07
2.55076e-07
2.28265e-07
3.22304e-07
2.88422e-07
4.82624e-07
4.25978e-07
1.16754e-06
9.6348e-07
5.33813e-08
5.73271e-08
5.67228e-08
6.2401e-08
6.0744e-08
6.89631e-08
6.55621e-08
7.73191e-08
7.15409e-08
8.75611e-08
7.90561e-08
9.97332e-08
8.84089e-08
1.13946e-07
9.96567e-08
1.30425e-07
1.12778e-07
1.4956e-07
1.27702e-07
1.71975e-07
1.44267e-07
1.98653e-07
1.62153e-07
2.31127e-07
1.80817e-07
2.71636e-07
1.99453e-07
3.23162e-07
2.1701e-07
3.88943e-07
2.32227e-07
4.70203e-07
2.43832e-07
5.60027e-07
2.50832e-07
6.34718e-07
2.52768e-07
6.56723e-07
2.49798e-07
6.02253e-07
2.42613e-07
4.88669e-07
2.32231e-07
3.61997e-07
2.19754e-07
2.59694e-07
2.06182e-07
1.92569e-07
1.92346e-07
1.53853e-07
1.7892e-07
1.33367e-07
1.66443e-07
1.23582e-07
1.55341e-07
1.20186e-07
1.45918e-07
1.207e-07
1.38326e-07
1.23266e-07
1.32509e-07
1.26498e-07
1.28203e-07
1.29993e-07
1.2521e-07
1.33655e-07
1.23571e-07
1.37521e-07
1.23347e-07
1.4176e-07
1.24565e-07
1.46623e-07
1.27277e-07
1.52447e-07
1.31597e-07
1.59678e-07
1.37757e-07
1.68938e-07
1.46177e-07
1.81166e-07
1.57588e-07
1.97907e-07
1.7329e-07
2.22025e-07
1.95762e-07
2.59655e-07
2.30319e-07
3.27251e-07
2.90948e-07
4.89008e-07
4.29747e-07
1.18562e-06
9.74383e-07
5.04927e-08
5.36802e-08
5.31407e-08
5.79361e-08
5.64542e-08
6.35858e-08
6.05348e-08
7.09218e-08
6.56981e-08
8.0046e-08
7.22849e-08
9.10034e-08
8.05884e-08
1.03877e-07
9.06966e-08
1.18828e-07
1.02626e-07
1.36136e-07
1.16348e-07
1.56256e-07
1.31753e-07
1.79919e-07
1.48598e-07
2.08295e-07
1.66454e-07
2.43132e-07
1.84673e-07
2.8687e-07
2.02384e-07
3.4256e-07
2.18493e-07
4.12877e-07
2.31797e-07
4.96583e-07
2.41209e-07
5.81046e-07
2.46003e-07
6.36765e-07
2.45975e-07
6.29701e-07
2.41462e-07
5.51862e-07
2.33246e-07
4.34009e-07
2.22336e-07
3.2e-07
2.09763e-07
2.35488e-07
1.96451e-07
1.82654e-07
1.83184e-07
1.53007e-07
1.70594e-07
1.37799e-07
1.59179e-07
1.31183e-07
1.49307e-07
1.29718e-07
1.41188e-07
1.30926e-07
1.34818e-07
1.33081e-07
1.29953e-07
1.35632e-07
1.26343e-07
1.38368e-07
1.23999e-07
1.4126e-07
1.22966e-07
1.44409e-07
1.23257e-07
1.48006e-07
1.24892e-07
1.52313e-07
1.27928e-07
1.57665e-07
1.32499e-07
1.64504e-07
1.38857e-07
1.73449e-07
1.47442e-07
1.85432e-07
1.59002e-07
2.02003e-07
1.74861e-07
2.26035e-07
1.9751e-07
2.637e-07
2.3231e-07
3.31568e-07
2.93376e-07
4.94517e-07
4.33365e-07
1.20135e-06
9.85103e-07
4.8315e-08
5.07523e-08
5.02798e-08
5.42017e-08
5.28986e-08
5.89533e-08
5.62545e-08
6.52845e-08
6.06172e-08
7.33102e-08
6.62926e-08
8.3085e-08
7.35624e-08
9.4677e-08
8.25392e-08
1.08203e-07
9.32748e-08
1.23862e-07
1.0578e-07
1.4198e-07
1.19993e-07
1.63096e-07
1.35742e-07
1.88088e-07
1.52689e-07
2.18299e-07
1.70319e-07
2.55663e-07
1.87918e-07
3.0279e-07
2.04554e-07
3.62634e-07
2.19133e-07
4.36737e-07
2.30557e-07
5.20269e-07
2.37936e-07
5.94711e-07
2.40768e-07
6.27861e-07
2.39043e-07
5.94258e-07
2.33253e-07
5.01604e-07
2.24237e-07
3.87533e-07
2.12985e-07
2.88749e-07
2.00473e-07
2.20162e-07
1.87577e-07
1.78811e-07
1.75029e-07
1.5621e-07
1.63413e-07
1.45171e-07
1.5317e-07
1.41017e-07
1.44579e-07
1.40423e-07
1.37695e-07
1.41211e-07
1.32302e-07
1.42642e-07
1.28115e-07
1.44357e-07
1.25121e-07
1.46248e-07
1.23355e-07
1.48344e-07
1.22821e-07
1.50775e-07
1.23522e-07
1.53743e-07
1.25478e-07
1.5751e-07
1.28762e-07
1.62407e-07
1.33524e-07
1.68868e-07
1.40035e-07
1.77507e-07
1.48751e-07
1.8925e-07
1.60437e-07
2.05646e-07
1.76421e-07
2.29576e-07
1.9922e-07
2.67238e-07
2.34238e-07
3.35304e-07
2.9571e-07
4.99219e-07
4.36837e-07
1.21482e-06
9.9565e-07
4.6844e-08
4.85351e-08
4.81304e-08
5.11884e-08
5.00657e-08
5.50581e-08
5.27111e-08
6.04045e-08
5.62921e-08
6.73536e-08
6.10774e-08
7.59731e-08
6.7336e-08
8.6327e-08
7.51985e-08
9.85052e-08
8.47461e-08
1.1265e-07
9.60238e-08
1.28989e-07
1.09017e-07
1.47913e-07
1.23615e-07
1.70077e-07
1.39564e-07
1.96499e-07
1.56457e-07
2.28678e-07
1.73717e-07
2.68728e-07
1.9056e-07
3.19354e-07
2.06023e-07
3.83113e-07
2.19054e-07
4.59614e-07
2.28682e-07
5.39714e-07
2.34191e-07
5.99903e-07
2.35265e-07
6.09313e-07
2.32083e-07
5.54378e-07
2.25251e-07
4.55416e-07
2.15643e-07
3.50581e-07
2.04232e-07
2.67282e-07
1.91959e-07
2.12264e-07
1.79646e-07
1.80062e-07
1.67971e-07
1.63009e-07
1.57456e-07
1.55187e-07
1.48462e-07
1.52166e-07
1.41111e-07
1.51174e-07
1.35222e-07