/*--------------------------------*- C++ -*----------------------------------*\
  =========                 |
  \\      /  F ield         | OpenFOAM: The Open Source CFD Toolbox
   \\    /   O peration     | Website:  https://openfoam.org
    \\  /    A nd           | Version:  7
     \\/     M anipulation  |
\*---------------------------------------------------------------------------*/
FoamFile
{
    version     2.0;
    format      ascii;
    class       volScalarField;
    location    "20000";
    object      k;
}
// * * * * * * * * * * * * * * * * * * * * * * * * * * * * * * * * * * * * * //

dimensions      [0 2 -2 0 0 0 0];

internalField   nonuniform List<scalar> 
10981
(
6.69092e-06
3.25416e-05
6.0143e-06
7.0981e-06
4.00654e-05
2.98679e-05
3.48149e-05
4.93266e-06
7.40437e-06
4.40173e-05
3.70946e-05
4.16667e-05
2.61211e-05
3.60453e-05
3.77217e-06
7.86483e-06
4.67779e-05
4.12353e-05
4.52173e-05
3.30195e-05
4.19256e-05
2.18933e-05
3.67817e-05
2.64461e-06
8.24582e-06
4.90787e-05
4.42389e-05
4.79533e-05
3.72221e-05
4.55719e-05
2.92144e-05
4.25738e-05
1.68741e-05
3.72298e-05
1.91745e-06
8.55597e-06
5.11782e-05
4.67104e-05
5.04465e-05
4.04667e-05
4.88581e-05
3.36738e-05
4.69988e-05
2.50057e-05
4.39808e-05
1.29847e-05
3.73156e-05
1.44648e-06
7.63858e-06
5.31557e-05
4.88991e-05
5.28093e-05
4.32221e-05
5.19456e-05
3.70832e-05
5.10097e-05
3.03472e-05
4.90796e-05
2.05997e-05
4.47075e-05
1.02961e-05
3.53029e-05
1.10411e-06
6.40695e-06
5.50254e-05
5.09115e-05
5.50378e-05
4.56767e-05
5.47958e-05
3.9972e-05
5.4591e-05
3.43871e-05
5.34259e-05
2.63042e-05
4.99155e-05
1.6519e-05
4.31106e-05
8.29178e-06
3.19649e-05
8.58138e-07
5.37185e-06
5.67781e-05
5.27911e-05
5.71096e-05
4.79186e-05
5.73784e-05
4.25495e-05
5.77362e-05
3.76569e-05
5.71539e-05
3.10365e-05
5.42225e-05
2.14863e-05
4.82886e-05
1.32671e-05
4.00014e-05
6.75402e-06
2.84883e-05
6.89482e-07
4.6029e-06
5.83985e-05
5.45469e-05
5.90056e-05
4.99865e-05
5.96806e-05
4.49078e-05
6.04698e-05
4.04275e-05
6.03507e-05
3.50547e-05
5.79075e-05
2.60204e-05
5.25136e-05
1.71821e-05
4.51581e-05
1.08236e-05
3.65104e-05
5.61542e-06
2.53888e-05
5.78533e-07
4.04121e-06
5.98709e-05
5.61761e-05
6.07121e-05
5.1898e-05
6.17061e-05
4.70881e-05
6.28234e-05
4.28563e-05
6.30853e-05
3.84756e-05
6.10955e-05
3.0316e-05
5.61716e-05
2.08753e-05
4.93149e-05
1.39237e-05
4.15904e-05
9.02171e-06
3.32093e-05
4.80894e-06
2.28005e-05
5.05512e-07
3.62947e-06
6.11806e-05
5.76686e-05
6.22195e-05
5.36591e-05
6.34607e-05
4.91102e-05
6.48281e-05
4.50356e-05
6.54093e-05
4.1387e-05
6.38598e-05
3.43612e-05
5.941e-05
2.46251e-05
5.29413e-05
1.67772e-05
4.56507e-05
1.15469e-05
3.81473e-05
7.73259e-06
3.03071e-05
4.24561e-06
2.07016e-05
4.55179e-07
3.33142e-06
6.23152e-05
5.9013e-05
6.35211e-05
5.52685e-05
6.49533e-05
5.09814e-05
6.65099e-05
4.70228e-05
6.73641e-05
4.38702e-05
6.62459e-05
3.8084e-05
6.22993e-05
2.84927e-05
5.62109e-05
1.96903e-05
4.91971e-05
1.38082e-05
4.20656e-05
9.85198e-06
3.50492e-05
6.81908e-06
2.7833e-05
3.84504e-06
1.90386e-05
4.18679e-07
3.11737e-06
6.32641e-05
6.01979e-05
6.46122e-05
5.67217e-05
6.61916e-05
5.27022e-05
6.78906e-05
4.88514e-05
6.89802e-05
4.60026e-05
6.82846e-05
4.14134e-05
6.48734e-05
3.2433e-05
5.92016e-05
2.28284e-05
5.24282e-05
1.60687e-05
4.54868e-05
1.17059e-05
3.87972e-05
8.65037e-06
3.23551e-05
6.16227e-06
2.57922e-05
3.54885e-06
1.77247e-05
3.92886e-07
2.93941e-06
6.40191e-05
6.12115e-05
6.54893e-05
5.80121e-05
6.71832e-05
5.42718e-05
6.89899e-05
5.05407e-05
7.0282e-05
4.7853e-05
6.9997e-05
4.43061e-05
6.71494e-05
3.63435e-05
6.19472e-05
2.62662e-05
5.54333e-05
1.84801e-05
4.86201e-05
1.35199e-05
4.20651e-05
1.02216e-05
3.59222e-05
7.78497e-06
3.00933e-05
5.67321e-06
2.41377e-05
3.33444e-06
1.66146e-05
3.76888e-07
2.78476e-06
6.4574e-05
6.20453e-05
6.61503e-05
5.91328e-05
6.79338e-05
5.56852e-05
6.98228e-05
5.20998e-05
7.1291e-05
4.94801e-05
7.13976e-05
4.67563e-05
6.91341e-05
4.00864e-05
6.44597e-05
2.9986e-05
5.82554e-05
2.11558e-05
5.15648e-05
1.54202e-05
4.50648e-05
1.17308e-05
3.90285e-05
9.15488e-06
3.34832e-05
7.14052e-06
2.82338e-05
5.31328e-06
2.27314e-05
3.1939e-06
1.56462e-05
3.69519e-07
2.64115e-06
6.49242e-05
6.26908e-05
6.65943e-05
6.0077e-05
6.84493e-05
5.69371e-05
7.04031e-05
5.35319e-05
7.20245e-05
5.09321e-05
7.24999e-05
4.87917e-05
7.08264e-05
4.35227e-05
6.67354e-05
3.39015e-05
6.09072e-05
2.41878e-05
5.43699e-05
1.75025e-05
4.79009e-05
1.32845e-05
4.18833e-05
1.04501e-05
3.64324e-05
8.36233e-06
3.14588e-05
6.66345e-06
2.66485e-05
5.06614e-06
2.14954e-05
3.11821e-06
1.47647e-05
3.70072e-07
2.50153e-06
6.50677e-05
6.31422e-05
6.68214e-05
6.08384e-05
6.87357e-05
5.802e-05
7.07411e-05
5.48339e-05
7.2497e-05
5.22434e-05
7.33154e-05
5.04643e-05
7.22267e-05
4.65404e-05
6.87659e-05
3.78833e-05
6.33876e-05
2.76222e-05
5.7057e-05
1.98559e-05
5.06275e-05
1.49605e-05
4.45899e-05
1.17633e-05
3.91413e-05
9.50172e-06
3.42601e-05
7.77422e-06
2.97283e-05
6.32855e-06
2.52507e-05
4.91635e-06
2.03711e-05
3.09952e-06
1.39423e-05
3.7834e-07
2.36303e-06
6.50037e-05
6.33956e-05
6.68332e-05
6.1411e-05
6.87982e-05
5.89276e-05
7.0847e-05
5.59992e-05
7.27219e-05
5.34366e-05
7.38543e-05
5.18382e-05
7.33332e-05
4.90742e-05
7.05363e-05
4.17612e-05
6.56825e-05
3.14157e-05
5.96287e-05
2.25683e-05
5.32724e-05
1.68306e-05
4.72056e-05
1.31597e-05
4.17118e-05
1.06414e-05
3.68296e-05
8.79727e-06
3.23989e-05
7.35577e-06
2.82021e-05
6.11499e-06
2.398e-05
4.85022e-06
1.93228e-05
3.12947e-06
1.31483e-05
3.94657e-07
2.22583e-06
6.47339e-05
6.34482e-05
6.66322e-05
6.17904e-05
6.86421e-05
5.96534e-05
7.07296e-05
5.7019e-05
7.27109e-05
5.45241e-05
7.41273e-05
5.298e-05
7.41457e-05
5.11118e-05
7.20309e-05
4.53538e-05
6.77726e-05
3.54615e-05
6.20759e-05
2.57195e-05
5.5845e-05
1.897e-05
4.97632e-05
1.46971e-05
4.42032e-05
1.18372e-05
3.92676e-05
9.80774e-06
3.48451e-05
8.29106e-06
3.0758e-05
7.08053e-06
2.68161e-05
6.00444e-06
2.27937e-05
4.85362e-06
1.83098e-05
3.20487e-06
1.23653e-05
4.18593e-07
2.09865e-06
6.42613e-05
6.33001e-05
6.62227e-05
6.19734e-05
6.82738e-05
6.01916e-05
7.03971e-05
5.78826e-05
7.24745e-05
5.55084e-05
7.41458e-05
5.39484e-05
7.46669e-05
5.26892e-05
7.32359e-05
4.85027e-05
6.96325e-05
3.96035e-05
6.43786e-05
2.93335e-05
5.83414e-05
2.14614e-05
5.22766e-05
1.6436e-05
4.66487e-05
1.31372e-05
4.16315e-05
1.08547e-05
3.71635e-05
9.20381e-06
3.30968e-05
7.9503e-06
2.92707e-05
6.92576e-06
2.55223e-05
5.97991e-06
2.16477e-05
4.91971e-06
1.73059e-05
3.31768e-06
1.16233e-05
4.49577e-07
1.98558e-06
6.35911e-05
6.29523e-05
6.56098e-05
6.19587e-05
6.76995e-05
6.05369e-05
6.98576e-05
5.85787e-05
7.20221e-05
5.63838e-05
7.39207e-05
5.47894e-05
7.49021e-05
5.38759e-05
7.41401e-05
5.11019e-05
7.12366e-05
4.36378e-05
6.65099e-05
3.33312e-05
6.07471e-05
2.43896e-05
5.4749e-05
1.84444e-05
4.90682e-05
1.45904e-05
4.39567e-05
1.1979e-05
3.94102e-05
1.0138e-05
3.53102e-05
8.78939e-06
3.15137e-05
7.74758e-06
2.7883e-05
6.87214e-06
2.4274e-05
6.03224e-06
2.05135e-05
5.03778e-06
1.63362e-05
3.45925e-06
1.09329e-05
4.87201e-07
1.88763e-06
6.27298e-05
6.24084e-05
6.48006e-05
6.17464e-05
6.69268e-05
6.06864e-05
6.91191e-05
5.90972e-05
7.13636e-05
5.71384e-05
7.34631e-05
5.55327e-05
7.48591e-05
5.47585e-05
7.47365e-05
5.31136e-05
7.25591e-05
4.73454e-05
6.84387e-05
3.7587e-05
6.30396e-05
2.78272e-05
5.7172e-05
2.08005e-05
5.14686e-05
1.62518e-05
4.62649e-05
1.32212e-05
4.16213e-05
1.11288e-05
3.74534e-05
9.63778e-06
3.36345e-05
8.53194e-06
3.00394e-05
7.66115e-06
2.65478e-05
6.90872e-06
2.30416e-05
6.14922e-06
1.94099e-05
5.19675e-06
1.54185e-05
3.62314e-06
1.02991e-05
5.3144e-07
1.80309e-06
6.16855e-05
6.16732e-05
6.38032e-05
6.13381e-05
6.5964e-05
6.06379e-05
6.81898e-05
5.94291e-05
7.05075e-05
5.77568e-05
7.27839e-05
5.61915e-05
7.45481e-05
5.54225e-05
7.50232e-05
5.45677e-05
7.35789e-05
5.05342e-05
7.01309e-05
4.19038e-05
6.51876e-05
3.17423e-05
5.95285e-05
2.35914e-05
5.38478e-05
1.81859e-05
4.85672e-05
1.46261e-05
4.3819e-05
1.22105e-05
3.95618e-05
1.05266e-05
3.5687e-05
9.31586e-06
3.20778e-05
8.40684e-06
2.86254e-05
7.67832e-06
2.52332e-05
7.0221e-06
2.18394e-05
6.31861e-06
1.83574e-05
5.38871e-06
1.45615e-05
3.80589e-06
9.72739e-06
5.82356e-07
1.73347e-06
6.04676e-05
6.07533e-05
6.2627e-05
6.07372e-05
6.482e-05
6.03913e-05
6.70786e-05
5.95674e-05
6.94634e-05
5.82222e-05
7.18948e-05
5.67646e-05
7.39811e-05
5.59402e-05
7.50031e-05
5.55471e-05
7.42789e-05
5.30768e-05
7.15526e-05
4.60354e-05
6.71547e-05
3.60274e-05
6.17924e-05
2.68993e-05
5.61947e-05
2.0469e-05
5.08657e-05
1.62468e-05
4.60168e-05
1.34202e-05
4.16578e-05
1.14849e-05
3.77048e-05
1.01271e-05
3.40496e-05
9.14413e-06
3.05893e-05
8.39952e-06
2.72378e-05
7.78436e-06
2.39501e-05
7.19859e-06
2.06881e-05
6.53123e-06
1.73681e-05
5.61111e-06
1.37758e-05
4.00919e-06
9.22697e-06
6.38939e-07
1.67856e-06
5.90868e-05
5.96569e-05
6.12826e-05
5.99489e-05
6.35052e-05
5.99482e-05
6.57951e-05
5.95078e-05
6.82409e-05
5.85191e-05
7.08071e-05
5.72394e-05
7.31719e-05
5.63611e-05
7.46841e-05
5.61632e-05
7.46491e-05
5.49327e-05
7.2673e-05
4.97286e-05
6.89015e-05
4.05057e-05
6.39303e-05
3.07388e-05
5.84898e-05
2.31879e-05
5.31547e-05
1.81467e-05
4.82202e-05
1.48015e-05
4.37566e-05
1.25436e-05
3.97109e-05
1.09908e-05
3.59875e-05
9.89825e-06
3.24891e-05
9.1057e-06
2.91343e-05
8.49374e-06
2.58844e-05
7.96449e-06
2.27183e-05
7.42844e-06
1.96017e-05
6.78403e-06
1.64557e-05
5.86587e-06
1.30788e-05
4.23213e-06
8.80495e-06
6.99966e-07
1.63182e-06
5.75557e-05
5.83932e-05
5.97815e-05
5.89801e-05
6.20305e-05
5.93122e-05
6.43498e-05
5.92481e-05
6.68502e-05
5.86338e-05
6.95324e-05
5.75966e-05
7.21349e-05
5.67108e-05
7.40785e-05
5.65295e-05
7.46865e-05
5.61483e-05
7.34672e-05
5.2775e-05
7.0388e-05
4.49257e-05
6.59027e-05
3.50209e-05
6.07052e-05
2.64296e-05
5.54214e-05
2.0402e-05
5.04284e-05
1.64072e-05
4.58657e-05
1.37387e-05
4.172e-05
1.1933e-05
3.79137e-05
1.06912e-05
3.43563e-05
9.82021e-06
3.09703e-05
9.18261e-06
2.77174e-05
8.6735e-06
2.45831e-05
8.20835e-06
2.15533e-05
7.7082e-06
1.85969e-05
7.07918e-06
1.56416e-05
6.1528e-06
1.24828e-05
4.47399e-06
8.44929e-06
7.65866e-07
1.58964e-06
5.58876e-05
5.69736e-05
5.81375e-05
5.78388e-05
6.04084e-05
5.84885e-05
6.2754e-05
5.8789e-05
6.53023e-05
5.85563e-05
6.80828e-05
5.7814e-05
7.08855e-05
5.69922e-05
7.32015e-05
5.67421e-05
7.43953e-05
5.68347e-05
7.39168e-05
5.50549e-05
7.15768e-05
4.89971e-05
6.76667e-05
3.95883e-05
6.28061e-05
3.0233e-05
5.76436e-05
2.31001e-05
5.26328e-05
1.83017e-05
4.79867e-05
1.51142e-05
4.3741e-05
1.29835e-05
3.9843e-05
1.15453e-05
3.62124e-05
1.05628e-05
3.27758e-05
9.87297e-06
2.94937e-05
9.35756e-06
2.63533e-05
8.92793e-06
2.33499e-05
8.51211e-06
2.04732e-05
8.03905e-06
1.76968e-05
7.41631e-06
1.4941e-05
6.47376e-06
1.19792e-05
4.74497e-06
8.15396e-06
8.38079e-07
1.55252e-06
5.40968e-05
5.54104e-05
5.63645e-05
5.65351e-05
5.86525e-05
5.74844e-05
6.10196e-05
5.81333e-05
6.36092e-05
5.82803e-05
6.64712e-05
5.78706e-05
6.94399e-05
5.71914e-05
7.20717e-05
5.6866e-05
7.37864e-05
5.71355e-05
7.40129e-05
5.65588e-05
7.2435e-05
5.24491e-05
6.91778e-05
4.41924e-05
6.47505e-05
3.45223e-05
5.97924e-05
2.63307e-05
5.48178e-05
2.05627e-05
5.01149e-05
1.67241e-05
4.57775e-05
1.41786e-05
4.17852e-05
1.24853e-05
3.80721e-05
1.13526e-05
3.4571e-05
1.05828e-05
3.12424e-05
1.00376e-05
2.8072e-05
9.61878e-06
2.5059e-05
9.25268e-06
2.22045e-05
8.8757e-06
1.95024e-05
8.4206e-06
1.69184e-05
7.79786e-06
1.43484e-05
6.8404e-06
1.15653e-05
5.06302e-06
7.92957e-06
9.21376e-07
1.52625e-06
5.21992e-05
5.37173e-05
5.44777e-05
5.50804e-05
5.67779e-05
5.63086e-05
5.91602e-05
5.72865e-05
6.17833e-05
5.78035e-05
6.47107e-05
5.7749e-05
6.78141e-05
5.72849e-05
7.07088e-05
5.69327e-05
7.28765e-05
5.71908e-05
7.37551e-05
5.73777e-05
7.29389e-05
5.50911e-05
7.03936e-05
4.85211e-05
6.64932e-05
3.91532e-05
6.18312e-05
3.0141e-05
5.69603e-05
2.32797e-05
5.22398e-05
1.86351e-05
4.78281e-05
1.55631e-05
4.37449e-05
1.35411e-05
3.99451e-05
1.22108e-05
3.63704e-05
1.13292e-05
3.29827e-05
1.07305e-05
2.97661e-05
1.03013e-05
2.6721e-05
9.96112e-06
2.38549e-05
9.64632e-06
2.11723e-05
9.29803e-06
1.86597e-05
8.85562e-06
1.62596e-05
8.23627e-06
1.38634e-05
7.27057e-06
1.1255e-05
5.43756e-06
7.79414e-06
1.05446e-06
1.51583e-06
5.02113e-05
5.1909e-05
5.24931e-05
5.34875e-05
5.47994e-05
5.49719e-05
5.71925e-05
5.62561e-05
5.9839e-05
5.71272e-05
6.28162e-05
5.74367e-05
6.60253e-05
5.72457e-05
6.91337e-05
5.69441e-05
7.16863e-05
5.71114e-05
7.31525e-05
5.76683e-05
7.30735e-05
5.68555e-05
7.12766e-05
5.22591e-05
6.79867e-05
4.38786e-05
6.37172e-05
3.44626e-05
5.90296e-05
2.65443e-05
5.4344e-05
2.09281e-05
4.98854e-05
1.71934e-05
4.57222e-05
1.47497e-05
4.18366e-05
1.31622e-05
3.81836e-05
1.21301e-05
3.47284e-05
1.14514e-05
3.14544e-05
1.09913e-05
2.8362e-05
1.06578e-05
2.54622e-05
1.03823e-05
2.27667e-05
1.0107e-05
2.02726e-05
9.7821e-06
1.79454e-05
9.35623e-06
1.57216e-05
8.74961e-06
1.35017e-05
7.7787e-06
1.10672e-05
5.98518e-06
7.76309e-06
1.18959e-06
1.57293e-06
4.81509e-05
5.00018e-05
5.04276e-05
5.17707e-05
5.27332e-05
5.34863e-05
5.51305e-05
5.50518e-05
5.77907e-05
5.6256e-05
6.0802e-05
5.69267e-05
6.40904e-05
5.70489e-05
6.73683e-05
5.68816e-05
7.02403e-05
5.69655e-05
7.22219e-05
5.76075e-05
7.28348e-05
5.78031e-05
7.17979e-05
5.51605e-05
6.91857e-05
4.83714e-05
6.54032e-05
3.91545e-05
6.09881e-05
3.03996e-05
5.64028e-05
2.36958e-05
5.19366e-05
1.91396e-05
4.77126e-05
1.6158e-05
4.3748e-05
1.42372e-05
4.00162e-05
1.30063e-05
3.6489e-05
1.22162e-05
3.315e-05
1.17028e-05
2.99998e-05
1.13578e-05
2.70515e-05
1.11037e-05
2.43216e-05
1.08791e-05
2.18144e-05
1.06374e-05
1.95084e-05
1.03399e-05
1.73624e-05
9.94167e-06
1.53206e-05
9.36039e-06
1.32821e-05
8.46585e-06
1.1022e-05
6.52271e-06
7.95639e-06
1.31533e-06
1.61624e-06
4.60364e-05
4.80131e-05
4.82989e-05
4.99455e-05
5.0596e-05
5.18656e-05
5.29902e-05
5.36851e-05
5.56542e-05
5.51975e-05
5.86843e-05
5.62171e-05
6.20272e-05
5.66749e-05
6.54342e-05
5.67163e-05
6.85643e-05
5.67789e-05
7.09863e-05
5.73505e-05
7.22299e-05
5.80941e-05
7.19388e-05
5.7108e-05
7.005e-05
5.22848e-05
6.68406e-05
4.39648e-05
6.2792e-05
3.47794e-05
5.83839e-05
2.70312e-05
5.39618e-05
2.14867e-05
4.97065e-05
1.78255e-05
4.56768e-05
1.54746e-05
4.18704e-05
1.39833e-05
3.82699e-05
1.30425e-05
3.48617e-05
1.24499e-05
3.16467e-05
1.20745e-05
2.86397e-05
1.18254e-05
2.58606e-05
1.16347e-05
2.33194e-05
1.1454e-05
2.10032e-05
1.12494e-05
1.88839e-05
1.09919e-05
1.69267e-05
1.06408e-05
1.50749e-05
1.01436e-05
1.32263e-05
9.15138e-06
1.1202e-05
7.0081e-06
8.11164e-06
1.43331e-06
1.6475e-06
4.38866e-05
4.59611e-05
4.61255e-05
4.80289e-05
4.84053e-05
5.0125e-05
5.0788e-05
5.21694e-05
5.34453e-05
5.3962e-05
5.64791e-05
5.5311e-05
5.98537e-05
5.6111e-05
6.33531e-05
5.64174e-05
6.66853e-05
5.65442e-05
6.94738e-05
5.70047e-05
7.12756e-05
5.79334e-05
7.1693e-05
5.8135e-05
7.05478e-05
5.53332e-05
6.79827e-05
4.8551e-05
6.43936e-05
3.95366e-05
6.0249e-05
3.0962e-05
5.59346e-05
2.43318e-05
5.16883e-05
1.98262e-05
4.76158e-05
1.6924e-05
4.37448e-05
1.5093e-05
4.00739e-05
1.39516e-05
3.65953e-05
1.32481e-05
3.33115e-05
1.28203e-05
3.02388e-05
1.25601e-05
2.74003e-05
1.23885e-05
2.48101e-05
1.22526e-05
2.24626e-05
1.21186e-05
2.03387e-05
1.19647e-05
1.8415e-05
1.17708e-05
1.6656e-05
1.15039e-05
1.50065e-05
1.0925e-05
1.33816e-05
9.78104e-06
1.13594e-05
7.44997e-06
8.2288e-06
1.54472e-06
1.67372e-06
4.17209e-05
4.38647e-05
4.39257e-05
4.6039e-05
4.6179e-05
4.82814e-05
4.85409e-05
5.05198e-05
5.11805e-05
5.25623e-05
5.42034e-05
5.42155e-05
5.75879e-05
5.53514e-05
6.1147e-05
5.59587e-05
6.46307e-05
5.62341e-05
6.77149e-05
5.66231e-05
6.99967e-05
5.75152e-05
7.10661e-05
5.84015e-05
7.06585e-05
5.73647e-05
6.87877e-05
5.25426e-05
6.57439e-05
4.44059e-05
6.19534e-05
3.54211e-05
5.7822e-05
2.77687e-05
5.36367e-05
2.22496e-05
4.95528e-05
1.86488e-05
4.56342e-05
1.63766e-05
4.19003e-05
1.49705e-05
3.83535e-05
1.41154e-05
3.49998e-05
1.36094e-05
3.18573e-05
1.33195e-05
2.8952e-05
1.31527e-05
2.63023e-05
1.3048e-05
2.39083e-05
1.29686e-05
2.17583e-05
1.28952e-05
1.98364e-05
1.28181e-05
1.81188e-05
1.27058e-05
1.65725e-05
1.23622e-05
1.5136e-05
1.16496e-05
1.35265e-05
1.0362e-05
1.14813e-05
7.85573e-06
8.32792e-06
1.64989e-06
1.69852e-06
3.95591e-05
4.17437e-05
4.17186e-05
4.3995e-05
4.39352e-05
4.63528e-05
4.62663e-05
4.87532e-05
4.88769e-05
5.1013e-05
5.18742e-05
5.29414e-05
5.52487e-05
5.43967e-05
5.88377e-05
5.53214e-05
6.24274e-05
5.58146e-05
6.57418e-05
5.62127e-05
6.84241e-05
5.69834e-05
7.00753e-05
5.81351e-05
7.03744e-05
5.83957e-05
6.92234e-05
5.56285e-05
6.67958e-05
4.90263e-05
6.34496e-05
4.02456e-05
5.95842e-05
3.17987e-05
5.55232e-05
2.51961e-05
5.147e-05
2.0728e-05
4.75288e-05
1.78872e-05
4.37454e-05
1.61331e-05
4.01366e-05
1.50745e-05
3.67146e-05
1.44573e-05
3.35008e-05
1.4116e-05
3.05242e-05
1.39386e-05
2.78073e-05
1.38523e-05
2.53556e-05
1.38147e-05
2.31638e-05
1.38054e-05
2.1222e-05
1.38193e-05
1.95137e-05
1.38205e-05
1.80179e-05
1.36321e-05
1.66763e-05
1.31628e-05
1.52638e-05
1.23227e-05
1.36427e-05
1.09001e-05
1.15902e-05
8.22861e-06
8.42016e-06
1.74835e-06
1.72208e-06
3.74207e-05
3.96181e-05
3.95233e-05
4.19166e-05
4.16922e-05
4.43585e-05
4.3982e-05
4.68876e-05
4.65518e-05
4.93308e-05
4.95092e-05
5.1502e-05
5.28544e-05
5.32527e-05
5.64463e-05
5.44951e-05
6.01019e-05
5.52536e-05
6.35872e-05
5.57506e-05
6.65929e-05
5.6417e-05
6.87468e-05
5.75622e-05
6.97012e-05
5.85903e-05
6.92688e-05
5.76396e-05
6.75086e-05
5.30083e-05
6.46889e-05
4.51482e-05
6.11768e-05
3.63517e-05
5.73133e-05
2.87549e-05
5.33438e-05
2.32567e-05
4.94141e-05
1.96925e-05
4.56013e-05
1.74837e-05
4.19413e-05
1.61541e-05
3.84563e-05
1.53834e-05
3.51724e-05
1.4964e-05
3.21223e-05
1.47577e-05
2.93331e-05
1.46764e-05
2.68155e-05
1.46689e-05
2.45701e-05
1.47108e-05
2.25925e-05
1.47977e-05
2.08715e-05
1.48865e-05
1.93933e-05
1.48103e-05
1.80964e-05
1.44998e-05
1.67852e-05
1.39095e-05
1.53706e-05
1.29488e-05
1.37517e-05
1.13979e-05
1.16951e-05
8.56866e-06
8.50799e-06
1.84023e-06
1.74558e-06
3.53244e-05
3.75082e-05
3.73587e-05
3.98244e-05
3.94686e-05
4.23183e-05
4.17057e-05
4.49425e-05
4.42228e-05
4.7534e-05
4.71258e-05
4.99135e-05
5.04237e-05
5.19306e-05
5.39937e-05
5.3478e-05
5.7679e-05
5.45271e-05
6.12824e-05
5.52006e-05
6.45398e-05
5.58367e-05
6.71147e-05
5.68573e-05
6.86564e-05
5.81969e-05
6.89168e-05
5.85898e-05
6.78504e-05
5.60282e-05
6.56258e-05
4.97456e-05
6.25525e-05
4.12386e-05
5.8967e-05
3.29086e-05
5.51442e-05
2.63393e-05
5.12702e-05
2.1877e-05
4.7456e-05
1.90794e-05
4.37615e-05
1.7391e-05
4.02227e-05
1.64122e-05
3.68731e-05
1.58801e-05
3.37501e-05
1.56226e-05
3.08856e-05
1.55311e-05
2.82961e-05
1.55419e-05
2.59882e-05
1.56239e-05
2.39626e-05
1.57696e-05
2.2213e-05
1.59283e-05
2.07299e-05
1.59379e-05
1.94471e-05
1.57406e-05
1.81857e-05
1.53113e-05
1.68805e-05
1.4606e-05
1.54759e-05
1.35283e-05
1.38604e-05
1.18522e-05
1.17986e-05
8.87435e-06
8.59321e-06
1.92444e-06
1.76874e-06
3.3288e-05
3.5433e-05
3.52427e-05
3.77386e-05
3.72822e-05
4.02533e-05
3.94552e-05
4.29383e-05
4.1907e-05
4.56425e-05
4.47416e-05
4.81941e-05
4.79747e-05
5.04443e-05
5.15004e-05
5.22748e-05
5.51836e-05
5.36207e-05
5.88585e-05
5.45266e-05
6.23016e-05
5.5224e-05
6.5217e-05
5.61201e-05
6.72687e-05
5.74686e-05
6.81736e-05
5.86565e-05
6.78019e-05
5.79174e-05
6.62209e-05
5.36337e-05
6.36641e-05
4.61419e-05
6.04395e-05
3.75641e-05
5.68355e-05
3.00368e-05
5.30713e-05
2.45405e-05
4.92925e-05
2.09931e-05
4.55871e-05
1.88332e-05
4.20088e-05
1.75746e-05
3.86015e-05
1.68854e-05
3.5409e-05
1.65486e-05
3.24688e-05
1.64283e-05
2.98038e-05
1.64443e-05
2.74268e-05
1.65553e-05
2.53436e-05
1.6748e-05
2.3553e-05
1.6963e-05
2.20486e-05
1.70405e-05
2.07592e-05
1.69287e-05
1.95163e-05
1.66124e-05
1.82681e-05
1.60693e-05
1.69796e-05
1.52503e-05
1.55846e-05
1.40593e-05
1.39709e-05
1.22665e-05
1.19019e-05
9.15159e-06
8.67648e-06
2.00208e-06
1.79162e-06
3.13281e-05
3.34115e-05
3.31923e-05
3.56795e-05
3.51503e-05
3.81846e-05
3.72476e-05
4.08968e-05
3.96216e-05
4.36773e-05
4.23739e-05
4.6364e-05
4.55258e-05
4.88114e-05
4.8986e-05
5.0896e-05
5.26387e-05
5.25297e-05
5.63442e-05
5.37003e-05
5.99146e-05
5.45418e-05
6.30942e-05
5.53818e-05
6.5574e-05
5.66016e-05
6.70588e-05
5.81091e-05
6.73575e-05
5.8704e-05
6.64449e-05
5.64899e-05
6.44679e-05
5.06541e-05
6.16848e-05
4.24976e-05
5.83771e-05
3.43245e-05
5.4786e-05
2.77854e-05
5.10889e-05
2.33149e-05
4.74037e-05
2.05427e-05
4.38061e-05
1.89115e-05
4.03535e-05
1.80066e-05
3.70982e-05
1.75539e-05
3.40846e-05
1.73815e-05
3.13427e-05
1.7387e-05
2.8892e-05
1.75152e-05
2.67443e-05
1.77439e-05
2.4903e-05
1.8004e-05
2.33646e-05
1.81359e-05
2.20537e-05
1.80909e-05
2.08083e-05
1.78584e-05
1.95849e-05
1.74272e-05
1.83595e-05
1.67705e-05
1.70863e-05
1.58425e-05
1.56984e-05
1.45456e-05
1.40835e-05
1.26444e-05
1.2005e-05
9.40221e-06
8.75811e-06
2.07306e-06
1.81458e-06
2.94595e-05
3.14611e-05
3.12234e-05
3.36669e-05
3.30893e-05
3.61331e-05
3.50994e-05
3.88394e-05
3.73836e-05
4.16604e-05
4.004e-05
4.44444e-05
4.30948e-05
4.70515e-05
4.64702e-05
4.93567e-05
5.00666e-05
5.1258e-05
5.37666e-05
5.27039e-05
5.74126e-05
5.37507e-05
6.0787e-05
5.46267e-05
6.36132e-05
5.57095e-05
6.56023e-05
5.72218e-05
6.65256e-05
5.85884e-05
6.62812e-05
5.81635e-05
6.49277e-05
5.43635e-05
6.26574e-05
4.73562e-05
5.97246e-05
3.90741e-05
5.63772e-05
3.16432e-05
5.28174e-05
2.61483e-05
4.91922e-05
2.25976e-05
4.56023e-05
2.04751e-05
4.21219e-05
1.92783e-05
3.88145e-05
1.86619e-05
3.57331e-05
1.84072e-05
3.29156e-05
1.83825e-05
3.03888e-05
1.85144e-05
2.81713e-05
1.87678e-05
2.62718e-05
1.90624e-05
2.46893e-05
1.92381e-05
2.33453e-05
1.92461e-05
2.20826e-05
1.90779e-05
2.08625e-05
1.87277e-05
1.96674e-05
1.81812e-05
1.84625e-05
1.74163e-05
1.72013e-05
1.6386e-05
1.58168e-05
1.49903e-05
1.41979e-05
1.29881e-05
1.21081e-05
9.62815e-06
8.83829e-06
2.13777e-06
1.83749e-06
2.76942e-05
2.95971e-05
2.93499e-05
3.1719e-05
3.11138e-05
3.41195e-05
3.30265e-05
3.67883e-05
3.5209e-05
3.96145e-05
3.77565e-05
4.24582e-05
4.0699e-05
4.51863e-05
4.39714e-05
4.76753e-05
4.74883e-05
4.98159e-05
5.1151e-05
5.15309e-05
5.48278e-05
5.2819e-05
5.83346e-05
5.38163e-05
6.14297e-05
5.48284e-05
6.38424e-05
5.62042e-05
6.53275e-05
5.78633e-05
6.57266e-05
5.87132e-05
6.50174e-05
5.69625e-05
6.33168e-05
5.17096e-05
6.08334e-05
4.40184e-05
5.78041e-05
3.60684e-05
5.44449e-05
2.95754e-05
5.09283e-05
2.50924e-05
4.73807e-05
2.23325e-05
4.38961e-05
2.07451e-05
4.05521e-05
1.99021e-05
3.7412e-05
1.95257e-05
3.4523e-05
1.94458e-05
3.19204e-05
1.95646e-05
2.96299e-05
1.98301e-05
2.76665e-05
2.0149e-05
2.60318e-05
2.03583e-05
2.46457e-05
2.04085e-05
2.33542e-05
2.02905e-05
2.21218e-05
2.00006e-05
2.09351e-05
1.95323e-05
1.97654e-05
1.88762e-05
1.8577e-05
1.80094e-05
1.73231e-05
1.68833e-05
1.59389e-05
1.53954e-05
1.43138e-05
1.32994e-05
1.22111e-05
9.83079e-06
8.91738e-06
2.19608e-06
1.86082e-06
2.60413e-05
2.78325e-05
2.75829e-05
2.98522e-05
2.92373e-05
3.21632e-05
3.10429e-05
3.47653e-05
3.31131e-05
3.75626e-05
3.55393e-05
4.04288e-05
3.83554e-05
4.32389e-05
4.15076e-05
4.5873e-05
4.4924e-05
4.82189e-05
4.85213e-05
5.0184e-05
5.21894e-05
5.1727e-05
5.57738e-05
5.29088e-05
5.90663e-05
5.39425e-05
6.18216e-05
5.51742e-05
6.37953e-05
5.68166e-05
6.47925e-05
5.83718e-05
6.47241e-05
5.83366e-05
6.36302e-05
5.51485e-05
6.16607e-05
4.87651e-05
5.90233e-05
4.08873e-05
5.59337e-05
3.36072e-05
5.25824e-05
2.8128e-05
4.91197e-05
2.45669e-05
4.56616e-05
2.24643e-05
4.23018e-05
2.13129e-05
3.91166e-05
2.07632e-05
3.61637e-05
2.05953e-05
3.34881e-05
2.06797e-05
3.11237e-05
2.09425e-05
2.90925e-05
2.12741e-05
2.73993e-05
2.15073e-05
2.59636e-05
2.15898e-05
2.46344e-05
2.15111e-05
2.33782e-05
2.12663e-05
2.21838e-05
2.08549e-05
2.1027e-05
2.02745e-05
1.98781e-05
1.9515e-05
1.87009e-05
1.85524e-05
1.74507e-05
1.73368e-05
1.60639e-05
1.57629e-05
1.44308e-05
1.35802e-05
1.23139e-05
1.00117e-05
8.99568e-06
2.24826e-06
1.88336e-06
2.45076e-05
2.61774e-05
2.5931e-05
2.808e-05
2.747e-05
3.02811e-05
2.91611e-05
3.27904e-05
3.111e-05
3.55274e-05
3.34038e-05
3.838e-05
3.60804e-05
4.12332e-05
3.90967e-05
4.3973e-05
4.23929e-05
4.6487e-05
4.58992e-05
4.86741e-05
4.95242e-05
5.04669e-05
5.31383e-05
5.18707e-05
5.6564e-05
5.30114e-05
5.95847e-05
5.4167e-05
6.19682e-05
5.56617e-05
6.35025e-05
5.74538e-05
6.40482e-05
5.859e-05
6.3576e-05
5.73978e-05
6.21693e-05
5.28669e-05
5.99917e-05
4.57822e-05
5.72428e-05
3.81564e-05
5.41201e-05
3.17578e-05
5.07932e-05
2.72746e-05
4.73995e-05
2.45075e-05
4.40511e-05
2.29438e-05
4.08391e-05
2.21524e-05
3.78341e-05
2.18536e-05
3.50915e-05
2.18762e-05
3.26546e-05
2.2118e-05
3.05536e-05
2.2449e-05
2.87973e-05
2.26953e-05
2.73061e-05
2.28005e-05
2.59323e-05
2.27511e-05
2.4643e-05
2.25402e-05
2.34288e-05
2.21703e-05
2.22688e-05
2.16432e-05
2.11369e-05
2.09567e-05
2.00028e-05
2.00999e-05
1.88325e-05
1.90477e-05
1.75828e-05
1.77485e-05
1.61912e-05
1.6095e-05
1.45487e-05
1.38322e-05
1.24166e-05
1.01724e-05
9.07144e-06
2.29514e-06
1.9058e-06
2.30967e-05
2.46391e-05
2.44002e-05
2.64141e-05
2.58202e-05
2.8489e-05
2.73909e-05
3.08827e-05
2.9211e-05
3.35307e-05
3.13636e-05
3.63356e-05
3.38891e-05
3.91941e-05
3.67552e-05
4.19995e-05
3.99132e-05
4.46423e-05
4.33058e-05
4.70175e-05
4.68574e-05
4.90415e-05
5.04593e-05
5.06811e-05
5.39617e-05
5.19917e-05
5.71761e-05
5.31635e-05
5.98902e-05
5.45121e-05
6.18901e-05
5.62538e-05
6.3004e-05
5.79933e-05
6.31451e-05
5.83974e-05
6.23307e-05
5.59328e-05
6.06695e-05
5.0324e-05
5.83301e-05
4.29935e-05
5.5503e-05
3.59601e-05
5.23695e-05
3.05361e-05
4.90858e-05
2.69607e-05
4.57829e-05
2.48561e-05
4.25686e-05
2.37362e-05
3.95276e-05
2.325e-05
3.67278e-05
2.31747e-05
3.42229e-05
2.3372e-05
3.20523e-05
2.3686e-05
3.023e-05
2.39328e-05
2.86789e-05
2.40507e-05
2.72548e-05
2.40211e-05
2.59252e-05
2.38345e-05
2.46818e-05
2.3494e-05
2.35062e-05
2.30044e-05
2.23749e-05
2.23677e-05
2.12615e-05
2.15813e-05
2.01374e-05
2.06333e-05
1.89702e-05
1.94974e-05
1.77183e-05
1.81206e-05
1.63204e-05
1.63934e-05
1.46667e-05
1.40572e-05
1.2517e-05
1.03142e-05
9.14485e-06
2.33623e-06
1.92792e-06
2.18097e-05
2.32221e-05
2.29936e-05
2.48625e-05
2.4293e-05
2.67994e-05
2.57402e-05
2.90591e-05
2.74262e-05
3.15926e-05
2.94304e-05
3.43187e-05
3.17956e-05
3.71467e-05
3.44989e-05
3.99784e-05
3.75024e-05
4.27094e-05
4.07607e-05
4.52349e-05
4.42116e-05
4.74621e-05
4.77648e-05
4.93325e-05
5.1294e-05
5.0849e-05
5.46377e-05
5.21209e-05
5.76065e-05
5.33959e-05
5.99955e-05
5.49784e-05
6.16172e-05
5.68793e-05
6.2342e-05
5.8309e-05
6.21277e-05
5.77404e-05
6.10236e-05
5.40621e-05
5.91545e-05
4.77486e-05
5.66905e-05
4.05922e-05
5.38132e-05
3.43743e-05
5.06921e-05
2.99126e-05
4.74759e-05
2.71246e-05
4.42898e-05
2.55676e-05
4.12345e-05
2.48211e-05
3.83915e-05
2.4601e-05
3.58264e-05
2.47235e-05
3.35891e-05
2.49994e-05
3.16999e-05
2.52315e-05
3.00861e-05
2.53504e-05
2.86074e-05
2.53307e-05
2.72319e-05
2.51595e-05
2.59518e-05
2.48387e-05
2.47508e-05
2.43741e-05
2.36077e-05
2.37707e-05
2.24984e-05
2.30309e-05
2.1398e-05
2.21507e-05
2.02796e-05
2.11176e-05
1.91126e-05
1.99039e-05
1.78567e-05
1.84553e-05
1.64502e-05
1.66602e-05
1.47834e-05
1.42569e-05
1.26157e-05
1.04386e-05
9.21635e-06
2.37241e-06
1.94983e-06
2.06452e-05
2.19276e-05
2.1712e-05
2.34304e-05
2.28912e-05
2.52212e-05
2.42138e-05
2.73333e-05
2.57631e-05
2.97318e-05
2.76143e-05
3.23514e-05
2.98119e-05
3.51151e-05
3.23422e-05
3.79352e-05
3.51773e-05
4.07145e-05
3.82827e-05
4.33503e-05
4.16084e-05
4.57462e-05
4.50806e-05
4.78281e-05
4.85931e-05
4.95631e-05
5.20085e-05
5.09948e-05
5.51615e-05
5.22881e-05
5.78629e-05
5.37279e-05
5.99226e-05
5.55391e-05
6.11838e-05
5.74421e-05
6.15557e-05
5.83018e-05
6.103e-05
5.66448e-05
5.96798e-05
5.19651e-05
5.76417e-05
4.53614e-05
5.50855e-05
3.87157e-05
5.21854e-05
3.34117e-05
4.9104e-05
2.98326e-05
4.59835e-05
2.77113e-05
4.29413e-05
2.66129e-05
4.00741e-05
2.61872e-05
3.74605e-05
2.61954e-05
3.51623e-05
2.64063e-05
3.32078e-05
2.66043e-05
3.15302e-05
2.67107e-05
2.99943e-05
2.66892e-05
2.85686e-05
2.65244e-05
2.72461e-05
2.62147e-05
2.6012e-05
2.57651e-05
2.48471e-05
2.51825e-05
2.37294e-05
2.4472e-05
2.26361e-05
2.36352e-05
2.15439e-05
2.26676e-05
2.04279e-05
2.15552e-05
1.92588e-05
2.02694e-05
1.79963e-05
1.87545e-05
1.65793e-05
1.68973e-05
1.48986e-05
1.44327e-05
1.27127e-05
1.05466e-05
9.28615e-06
2.40401e-06
1.97128e-06
1.96004e-05
2.07551e-05
2.05536e-05
2.21202e-05
2.16151e-05
2.37611e-05
2.28138e-05
2.57162e-05
2.42261e-05
2.79635e-05
2.59225e-05
3.04534e-05
2.79485e-05
3.31227e-05
3.02981e-05
3.58956e-05
3.29532e-05
3.86836e-05
3.58894e-05
4.13892e-05
3.90685e-05
4.39158e-05
4.24306e-05
4.61805e-05
4.58877e-05
4.81271e-05
4.93241e-05
4.97515e-05
5.25972e-05
5.11432e-05
5.55373e-05
5.25187e-05
5.79609e-05
5.41621e-05
5.9698e-05
5.61398e-05
6.06229e-05
5.78428e-05
6.06762e-05
5.79257e-05
5.98768e-05
5.52101e-05
5.83183e-05
4.98492e-05
5.61462e-05
4.33493e-05
5.35289e-05
3.74335e-05
5.06365e-05
3.3041e-05
4.76256e-05
3.02404e-05
4.46304e-05
2.86813e-05
4.17634e-05
2.79732e-05
3.91177e-05
2.78162e-05
3.67681e-05
2.79274e-05
3.47525e-05
2.80662e-05
3.30121e-05
2.81421e-05
3.14181e-05
2.81062e-05
2.99395e-05
2.79379e-05
2.85701e-05
2.76308e-05
2.72968e-05
2.71878e-05
2.61023e-05
2.66157e-05
2.49662e-05
2.59217e-05
2.38674e-05
2.51108e-05
2.27849e-05
2.41835e-05
2.16972e-05
2.31344e-05
2.0581e-05
2.19486e-05
1.94069e-05
2.05962e-05
1.81358e-05
1.90205e-05
1.67075e-05
1.71066e-05
1.50126e-05
1.45866e-05
1.28081e-05
1.06396e-05
9.35425e-06
2.43098e-06
1.99229e-06
1.86709e-05
1.9702e-05
1.9515e-05
2.09315e-05
2.04628e-05
2.24223e-05
2.15402e-05
2.42156e-05
2.28174e-05
2.63005e-05
2.43595e-05
2.86419e-05
2.62124e-05
3.11909e-05
2.83769e-05
3.38841e-05
3.08435e-05
3.66435e-05
3.35971e-05
3.93787e-05
3.66104e-05
4.19957e-05
3.9837e-05
4.44083e-05
4.32048e-05
4.6546e-05
4.66171e-05
4.83723e-05
4.99527e-05
4.99172e-05
5.30621e-05
5.13186e-05
5.57754e-05
5.28291e-05
5.79203e-05
5.46787e-05
5.9349e-05
5.67078e-05
5.99617e-05
5.80031e-05
5.97262e-05
5.71992e-05
5.86876e-05
5.35915e-05
5.69562e-05
4.79186e-05
5.46835e-05
4.18374e-05
5.20385e-05
3.67551e-05
4.91874e-05
3.32163e-05
4.62795e-05
3.10894e-05
4.34432e-05
3.00067e-05
4.07868e-05
2.96204e-05
3.83994e-05
2.95874e-05
3.63304e-05
2.96354e-05