/*--------------------------------*- C++ -*----------------------------------*\
  =========                 |
  \\      /  F ield         | OpenFOAM: The Open Source CFD Toolbox
   \\    /   O peration     | Website:  https://openfoam.org
    \\  /    A nd           | Version:  7
     \\/     M anipulation  |
\*---------------------------------------------------------------------------*/
FoamFile
{
    version     2.0;
    format      ascii;
    class       volScalarField;
    location    "20000";
    object      nut;
}
// * * * * * * * * * * * * * * * * * * * * * * * * * * * * * * * * * * * * * //

dimensions      [0 2 -1 0 0 0 0];

internalField   nonuniform List<scalar> 
10981
(
5.41922e-07
1.64733e-05
4.87005e-07
5.74887e-07
3.41383e-05
1.59924e-05
1.64782e-05
3.91546e-07
5.99564e-07
5.44267e-05
3.36938e-05
3.3529e-05
1.38414e-05
1.65528e-05
2.76126e-07
6.24358e-07
7.87582e-05
5.37409e-05
5.44738e-05
2.96576e-05
3.44283e-05
1.1491e-05
1.79007e-05
1.65498e-07
6.03961e-07
0.000107854
7.70828e-05
8.08915e-05
4.77703e-05
5.86304e-05
2.51864e-05
3.97258e-05
9.55026e-06
1.92777e-05
1.04406e-07
5.35579e-07
0.000141947
0.000104342
0.000113213
6.88379e-05
9.01794e-05
4.02052e-05
7.07434e-05
2.2719e-05
4.60473e-05
8.53812e-06
1.88162e-05
7.2467e-08
4.15826e-07
0.00018089
0.000135838
0.000151252
9.3275e-05
0.000128546
5.7323e-05
0.000110158
3.59154e-05
8.3259e-05
2.27261e-05
4.70327e-05
7.55063e-06
1.68373e-05
5.34327e-08
3.20898e-07
0.000224361
0.000171628
0.000194477
0.000121382
0.000172772
7.70633e-05
0.000156208
4.98375e-05
0.000128761
3.61053e-05
8.57787e-05
2.27235e-05
4.33532e-05
6.51578e-06
1.50198e-05
4.16107e-08
2.59747e-07
0.00027193
0.000211606
0.000242295
0.000153348
0.000221927
9.98439e-05
0.0002074
6.51037e-05
0.00018038
4.90223e-05
0.000132931
3.74826e-05
7.97223e-05
2.15873e-05
3.95225e-05
5.65027e-06
1.37465e-05
3.45503e-08
2.23226e-07
0.000323127
0.000255504
0.000294092
0.000189194
0.000275151
0.000125994
0.000262634
8.22451e-05
0.000236576
6.21403e-05
0.000186453
5.09656e-05
0.00012453
3.77764e-05
7.28474e-05
1.99278e-05
3.69093e-05
5.02734e-06
1.29259e-05
3.07768e-08
2.02881e-07
0.000377462
0.000303005
0.000349287
0.000228848
0.000331759
0.000155743
0.000321054
0.000101752
0.000296252
7.59885e-05
0.000244792
6.37634e-05
0.000176213
5.27822e-05
0.000114147
3.65834e-05
6.79672e-05
1.84497e-05
3.53822e-05
4.6464e-06
1.24755e-05
2.89546e-08
1.93421e-07
0.000434416
0.000353716
0.000407311
0.000272153
0.00039111
0.000189258
0.00038199
0.000124061
0.000358542
9.10307e-05
0.000306785
7.64859e-05
0.000233427
6.64334e-05
0.000162384
5.29996e-05
0.000106332
3.49627e-05
6.50695e-05
1.74207e-05
3.46852e-05
4.43755e-06
1.23277e-05
2.79557e-08
1.90956e-07
0.000493466
0.00040723
0.000467591
0.000318858
0.000452637
0.000226599
0.000444835
0.000149593
0.000422786
0.000107714
0.000371478
8.9607e-05
0.000295056
7.92137e-05
0.000216592
6.82883e-05
0.000151307
5.20444e-05
0.000101409
3.36359e-05
6.3656e-05
1.67859e-05
3.46307e-05
4.30885e-06
1.24009e-05
2.7422e-08
1.915e-07
0.00055405
0.000463099
0.000529565
0.000368666
0.000515766
0.00026771
0.00050902
0.000178704
0.00048836
0.000126507
0.00043811
0.000103508
0.00036011
9.17236e-05
0.000275862
8.22248e-05
0.000202237
6.8633e-05
0.000143903
5.09487e-05
9.87531e-05
3.27389e-05
6.34015e-05
1.63488e-05
3.50999e-05
4.2234e-06
1.25579e-05
2.72938e-08
1.92497e-07
0.000615609
0.000520819
0.000592628
0.000421198
0.000579951
0.000312486
0.000574036
0.000211696
0.000554673
0.000147894
0.000506004
0.000118545
0.000427728
0.000104464
0.000339351
9.50748e-05
0.000258478
8.41752e-05
0.000192103
6.83057e-05
0.000139569
5.01223e-05
9.79073e-05
3.20763e-05
6.41158e-05
1.60051e-05
3.58328e-05
4.17421e-06
1.27212e-05
2.76268e-08
1.93502e-07
0.000677548
0.000579899
0.000656183
0.000476051
0.000644578
0.000360688
0.000639343
0.00024876
0.000621223
0.000172359
0.000574486
0.000135098
0.000497133
0.000117811
0.000406223
0.000107427
0.000319395
9.8433e-05
0.000245567
8.50698e-05
0.000185783
6.79341e-05
0.000137764
4.94637e-05
9.85989e-05
3.15054e-05
6.5391e-05
1.5734e-05
3.65938e-05
4.16743e-06
1.28781e-05
2.84365e-08
1.93636e-07
0.000739227
0.000639788
0.000719609
0.000532765
0.000709043
0.000412004
0.000704415
0.000289986
0.000687487
0.000200405
0.000642986
0.000153603
0.000567554
0.000132061
0.000475649
0.000119879
0.00038429
0.000111474
0.000303823
0.000100819
0.000237062
8.5534e-05
0.00018272
6.75638e-05
0.000138156
4.88399e-05
0.00010023
3.10019e-05
6.67637e-05
1.55625e-05
3.73277e-05
4.20763e-06
1.29944e-05
2.98326e-08
1.92404e-07
0.000800021
0.000699911
0.000782241
0.000590842
0.000772758
0.000466007
0.000768646
0.000335302
0.000752924
0.000232472
0.000710962
0.000174559
0.0006383
0.000147489
0.000546864
0.000132879
0.000452434
0.000123721
0.00036635
0.000115325
0.00029305
0.000102451
0.000232502
8.57516e-05
0.000182518
6.71217e-05
0.000139927
4.82354e-05
0.00010208
3.06248e-05
6.80898e-05
1.55158e-05
3.79682e-05
4.30793e-06
1.3068e-05
3.21869e-08
1.90277e-07
0.000859241
0.00075967
0.000843436
0.000649726
0.000835077
0.000522223
0.000831485
0.00038449
0.000816998
0.000268899
0.000777823
0.000198511
0.000708703
0.000164412
0.000619082
0.00014674
0.000523093
0.00013588
0.000432541
0.000128581
0.000353368
0.000118345
0.000286818
0.00010354
0.000231453
8.57495e-05
0.000184187
6.66147e-05
0.000142065
4.77452e-05
0.000103884
3.04387e-05
6.92684e-05
1.56424e-05
3.85011e-05
4.49639e-06
1.3092e-05
3.5784e-08
1.89265e-07
0.000916218
0.000818388
0.000902503
0.000708819
0.00089536
0.00058011
0.000892356
0.000437204
0.000879181
0.000309908
0.000842993
0.000226045
0.000778077
0.000183227
0.000691493
0.000161682
0.000595492
0.000148555
0.000501766
0.000140848
0.000417529
0.000133019
0.000345352
0.000120545
0.000284709
0.000104233
0.000232778
8.55726e-05
0.000186434
6.61721e-05
0.000144195
4.74803e-05
0.000105493
3.05339e-05
7.02448e-05
1.60167e-05
3.88835e-05
4.79196e-06
1.31295e-05
4.08501e-08
1.90195e-07
0.00097028
0.000875418
0.00095878
0.000767486
0.000952969
0.000639059
0.000950669
0.00049294
0.000938945
0.000355544
0.000905965
0.00025772
0.000845778
0.000204439
0.000763335
0.000177905
0.000668813
0.00016214
0.00057332
0.00015275
0.000484984
0.000146446
0.000407724
0.000136489
0.000341987
0.000122158
0.00028545
0.000104629
0.000234931
8.53804e-05
0.000188714
6.59502e-05
0.000146082
4.75744e-05
0.000106789
3.10352e-05
7.09335e-05
1.66957e-05
3.92189e-05
5.19975e-06
1.3233e-05
4.76943e-08
1.93672e-07
0.00102075
0.000930073
0.00101162
0.000825065
0.00100727
0.000698392
0.00100584
0.000551053
0.000995732
0.00040563
0.00096621
0.000294037
0.00091119
0.000228644
0.00083385
0.000195668
0.000742232
0.000176865
0.000646442
0.000165101
0.000555135
0.000158822
0.000473474
0.000151215
0.000402965
0.000139196
0.000341931
0.000123354
0.000287291
0.000104913
0.00023717
8.53652e-05
0.000190704
6.61218e-05
0.00014754
4.82018e-05
0.000107636
3.20474e-05
7.14793e-05
1.76894e-05
3.96418e-05
5.72397e-06
1.34081e-05
5.66904e-08
2.00254e-07
0.001067
0.000981671
0.00106037
0.000880864
0.00105767
0.000757426
0.00105731
0.000610843
0.00104902
0.000459762
0.00102318
0.000335344
0.000973726
0.000256516
0.000902293
0.000215348
0.000814903
0.000192861
0.000720325
0.000178424
0.00062732
0.000170589
0.000542082
0.000164718
0.000467259
0.000155112
0.000401914
0.000141375
0.000343257
0.000124341
0.000289309
0.000105299
0.000239079
8.57327e-05
0.000192148
6.69099e-05
0.000148394
4.95207e-05
0.00010821
3.35851e-05
7.20856e-05
1.89878e-05
4.01837e-05
6.3646e-06
1.36675e-05
6.81646e-08
2.09806e-07
0.00110844
0.00102955
0.00110447
0.00093418
0.0011036
0.000815401
0.00110453
0.000671491
0.00109831
0.000517323
0.00107636
0.000381754
0.0010328
0.000288725
0.000967955
0.000237466
0.000885983
0.000210253
0.000794112
0.000193014
0.000700794
0.000182661
0.000612967
0.000177165
0.000534401
0.000169797
0.000465051
0.000158393
0.000402524
0.000143265
0.000344856
0.000125343
0.000290968
0.000106016
0.000240349
8.6749e-05
0.000192842
6.85282e-05
0.000148809
5.15569e-05
0.000108801
3.56147e-05
7.28269e-05
2.05645e-05
4.08555e-05
7.10548e-06
1.40176e-05
8.20603e-08
2.22341e-07
0.00114456
0.00107308
0.00114336
0.000984302
0.00114453
0.000871556
0.001147
0.000732138
0.00114309
0.000577497
0.00112525
0.000433108
0.00108784
0.000325879
0.00103015
0.000262687
0.000954633
0.000229261
0.000866913
0.000208983
0.000774732
0.000195757
0.000685466
0.000188965
0.000603874
0.000183281
0.000530922
0.000174215
0.000464755
0.000161333
0.000403521
0.000145091
0.000346091
0.000126592
0.000291893
0.000107364
0.000240712
8.86844e-05
0.000192928
7.10179e-05
0.000149177
5.42426e-05
0.000109521
3.80661e-05
7.37152e-05
2.23747e-05
4.16666e-05
7.91769e-06
1.44438e-05
9.80685e-08
2.36528e-07
0.00117492
0.00111168
0.00117662
0.00103055
0.00118001
0.000925127
0.00118427
0.000791922
0.00118291
0.000639346
0.0011694
0.00048893
0.00113833
0.000368404
0.00108823
0.000291787
0.00102006
0.000250274
0.00093782
0.000226363
0.000848265
0.000210257
0.000758825
0.000200926
0.000675108
0.000195751
0.000599063
0.000188772
0.00052957
0.000178272
0.000464978
0.00016416
0.000404166
0.000147072
0.00034651
0.000128407
0.000291768
0.000109663
0.000240307
9.16041e-05
0.000192884
7.42922e-05
0.00014966
5.74739e-05
0.000110389
4.08559e-05
7.47617e-05
2.43294e-05
4.26073e-05
8.7629e-06
1.48902e-05
1.15538e-07
2.50463e-07
0.00119917
0.00114483
0.00120388
0.00107228
0.00120965
0.000975353
0.00121596
0.000849938
0.00121738
0.000701813
0.00120836
0.000548461
0.0011838
0.000416439
0.00114158
0.000325535
0.00108148
0.000273886
0.00100595
0.000245222
0.000920479
0.00022629
0.00083224
0.000213934
0.000747428
0.000207604
0.000668963
0.000202141
0.00059654
0.000193919
0.000528869
0.000182211
0.000464877
0.000167064
0.000403922
0.000149521
0.000345753
0.000131149
0.000290722
0.000113013
0.000239671
9.5412e-05
0.000192923
7.82204e-05
0.00015028
6.11377e-05
0.000111423
4.3852e-05
7.59649e-05
2.63059e-05
4.3543e-05
9.58379e-06
1.52971e-05
1.33551e-07
2.62388e-07
0.00121711
0.00117213
0.00122488
0.0011089
0.00123319
0.0010215
0.00124174
0.000905288
0.00124616
0.000763794
0.00124178
0.000610639
0.00122381
0.000469761
0.00118967
0.000364615
0.00113817
0.000300864
0.00107038
0.000265796
0.00099044
0.000243826
0.000904838
0.00022845
0.000820099
0.000219579
0.000740026
0.000214554
0.000665185
0.000208248
0.00059478
0.00019899
0.000527862
0.000186197
0.000463827
0.000170333
0.000402397
0.000152822
0.000343933
0.00013496
0.000289337
0.000117328
0.00023907
9.99683e-05
0.000193076
8.26701e-05
0.000151061
6.50563e-05
0.000112625
4.68435e-05
7.71347e-05
2.81676e-05
4.43128e-05
1.03293e-05
1.56098e-05
1.50718e-07
2.70728e-07
0.00122863
0.00119328
0.00123948
0.00113993
0.00125044
0.0010629
0.00126142
0.000957125
0.00126898
0.000824205
0.00126933
0.000674266
0.00125799
0.000527734
0.00123201
0.000409451
0.00118949
0.000332101
0.00113029
0.000288556
0.00105717
0.000262812
0.000975693
0.000244638
0.000892321
0.000232655
0.000811586
0.000226424
0.000734964
0.00022139
0.000662255
0.000214361
0.000592749
0.000204141
0.000525887
0.000190462
0.000461416
0.000174338
0.000399685
0.000157156
0.000341654
0.000139777
0.000287917
0.000122466
0.000238563
0.000105132
0.000193385
8.74248e-05
0.000152016
6.89572e-05
0.000113763
4.96275e-05
7.7992e-05
2.97974e-05
4.47992e-05
1.09579e-05
1.57911e-05
1.6625e-07
2.74479e-07
0.0012338
0.00120809
0.00124767
0.00116496
0.00126132
0.00109894
0.00127487
0.00100462
0.00128568
0.000881944
0.00129078
0.00073801
0.00128603
0.000589364
0.0012682
0.000460104
0.00123486
0.00036846
0.0011849
0.000314237
0.00111975
0.000283333
0.00104384
0.000262432
0.000963219
0.000247339
0.000882917
0.000238486
0.000805287
0.000233635
0.000730799
0.000228343
0.000659099
0.000220657
0.000589744
0.000209542
0.00052249
0.00019534
0.000457706
0.000179301
0.000396388
0.000162506
0.00033927
0.000145478
0.000286565
0.000128285
0.000238203
0.000110659
0.000193871
9.21667e-05
0.00015289
7.26054e-05
0.000114466
5.2089e-05
7.83608e-05
3.11741e-05
4.49184e-05
1.1469e-05
1.5781e-05
1.89897e-07
2.7349e-07
0.00123279
0.00121653
0.00124958
0.00118374
0.0012659
0.00112914
0.00128205
0.00104705
0.00129619
0.000936024
0.001306
0.000800512
0.00130771
0.000653308
0.00129792
0.000516127
0.0012738
0.000410602
0.00123352
0.000343773
0.00117729
0.000305739
0.00110828
0.000281688
0.00103186
0.000263808
0.000953223
0.000251762
0.000875499
0.000245446
0.000799879
0.000241126
0.00072646
0.000235636
0.000654986
0.000227257
0.000585275
0.000215457
0.000517709
0.000201066
0.000453305
0.000185243
0.00039292
0.000168771
0.000336914
0.000151926
0.000285354
0.000134544
0.000238027
0.00011621
0.00019427
9.66628e-05
0.000153233
7.59292e-05
0.00011451
5.43408e-05
7.81668e-05
3.26073e-05
4.45761e-05
1.24553e-05
1.56067e-05
2.14232e-07
2.83282e-07
0.00122593
0.0012187
0.00124546
0.00119612
0.00126438
0.00115311
0.00128312
0.00108379
0.00130055
0.000985494
0.00131494
0.000860483
0.0013229
0.000718057
0.00132093
0.000576622
0.00130594
0.000458842
0.00127555
0.000378158
0.00122895
0.000330698
0.00116804
0.000302366
0.00109725
0.000281964
0.00102163
0.000266761
0.000944863
0.000257633
0.000868891
0.000253073
0.000794326
0.000249144
0.000721177
0.000243382
0.000649386
0.000234331
0.000579361
0.000222097
0.000512137
0.0002077
0.00044865
0.000192108
0.000389437
0.000175843
0.000334696
0.000158894
0.000284341
0.000140896
0.000237766
0.000121574
0.000194086
0.000100921
0.000152799
7.9232e-05
0.000113871
5.71394e-05
7.74079e-05
3.52959e-05
4.41676e-05
1.3417e-05
1.59484e-05
2.3689e-07
2.91082e-07
0.00121366
0.00121486
0.00123571
0.00120213
0.00125708
0.00117062
0.00127832
0.00111431
0.00129893
0.00102955
0.00131769
0.000916696
0.0013316
0.000782027
0.00133712
0.000640225
0.00133102
0.00051294
0.00131052
0.000418255
0.00127403
0.000359164
0.00122222
0.000324705
0.0011584
0.000301583
0.00108719
0.000283642
0.00101258
0.000271204
0.000937158
0.000264727
0.000862127
0.000261435
0.000787848
0.00025784
0.000714414
0.000251654
0.000642308
0.000242036
0.000572575
0.000229547
0.000506222
0.000215229
0.000443938
0.000199828
0.00038608
0.000183523
0.000332692
0.000166054
0.000283266
0.000147165
0.000236913
0.000126851
0.000193072
0.000105441
0.000151662
8.36754e-05
0.000112746
6.1889e-05
7.70301e-05
3.78975e-05
4.50299e-05
1.42568e-05
1.61922e-05
2.58138e-07
2.96697e-07
0.00119652
0.00120538
0.00122081
0.00120193
0.00124443
0.00118158
0.00126801
0.00113827
0.0012916
0.0010675
0.00131445
0.000968066
0.0013339
0.000843646
0.0013465
0.00070528
0.0013489
0.000572116
0.00133812
0.000464563
0.00131194
0.000392228
0.00126998
0.000349315
0.00121435
0.000322531
0.00114895
0.000302255
0.00107778
0.00028664
0.00100396
0.000277056
0.000929251
0.000272955
0.000854462
0.000270748
0.000779912
0.000267225
0.000706163
0.000260537
0.000634283
0.000250447
0.000565365
0.000237846
0.000500207
0.000223638
0.000439345
0.000208234
0.000382966
0.000191509
0.000330678
0.00017327
0.000281638
0.000153544
0.000235251
0.000132717
0.000191425
0.000111682
0.000150264
9.06039e-05
0.000112623
6.64096e-05
7.8619e-05
4.0171e-05
4.56197e-05
1.50117e-05
1.63511e-05
2.78187e-07
3.01419e-07
0.00117511
0.00119076
0.00120134
0.00119583
0.00122696
0.00118607
0.00125267
0.00115545
0.00127896
0.00109882
0.00130552
0.00101365
0.00133004
0.000901469
0.00134917
0.000769998
0.00135959
0.000635015
0.00135815
0.000517045
0.00134224
0.0004309
0.0013106
0.00037716
0.00126417
0.000344963
0.0012059
0.000322303
0.00113955
0.000304042
0.00106849
0.000290993
0.000995036
0.000284358
0.000920453
0.00028244
0.000845384
0.000281003
0.000770495
0.000277305
0.000696908
0.000270052
0.000625771
0.000259635
0.000558011
0.000247018
0.000494314
0.000232809
0.00043503
0.000217074
0.000379915
0.000199717
0.000328192
0.000180822
0.000279288
0.00016085
0.000233115
0.000140828
0.000189857
0.000120789
0.000150557
9.7148e-05
0.000115056
7.03539e-05
7.97113e-05
4.22331e-05
4.59556e-05
1.57024e-05
1.64741e-05
2.97127e-07
3.05901e-07
0.0011501
0.00117157
0.00117793
0.00118427
0.00120526
0.00118431
0.00123282
0.00116582
0.0012615
0.00112316
0.00129132
0.00105271
0.00132036
0.000954224
0.0013454
0.000832549
0.0013632
0.000699864
0.00137059
0.000574994
0.00136469
0.000475846
0.00134355
0.000409415
0.00130704
0.000369454
0.0012571
0.000343575
0.0011969
0.000323185
0.00112987
0.000306957
0.00105873
0.00029685
0.000985202
0.00029346
0.000910282
0.000293159
0.000834842
0.00029217
0.00076004
0.000288019
0.000687102
0.000280262
0.00061707
0.000269668
0.000550768
0.000257001
0.000488729
0.000242536
0.000430865
0.000226311
0.00037651
0.000208493
0.000325138
0.000189624
0.000276696
0.000170832
0.000231473
0.000152038
0.00019067
0.000129364
0.000153873
0.000102864
0.000116764
7.39253e-05
8.03279e-05
4.41346e-05
4.62119e-05
1.63373e-05
1.65906e-05
3.1486e-07
3.10127e-07
0.00112213
0.00114845
0.00115124
0.00116779
0.00117996
0.00117668
0.00120908
0.00116951
0.00123978
0.00114034
0.00127238
0.0010847
0.00130531
0.00100087
0.00133556
0.000891294
0.00136002
0.000764698
0.00137557
0.000637052
0.00137919
0.000527132
0.00136845
0.000447212
0.00134231
0.000396996
0.00130165
0.00036618
0.00124889
0.000343694
0.00118719
0.000324958
0.00111952
0.000311206
0.00104801
0.000304606
0.000974025
0.000304116
0.000898682
0.000305132
0.00082324
0.000304079
0.000748985
0.00029938
0.00067707
0.000291269
0.000608465
0.000280538
0.000543877
0.000267657
0.000483394
0.000252835
0.000426502
0.000236344
0.000372739
0.000218807
0.000322126
0.00020143
0.000275059
0.00018403
0.000232856
0.000162595
0.000194857
0.000136889
0.000156264
0.000108033
0.000117757
7.721e-05
8.07917e-05
4.58946e-05
4.64588e-05
1.6915e-05
1.67049e-05
3.3144e-07
3.14376e-07
0.00109179
0.00112204
0.0011219
0.001147
0.00115172
0.00116368
0.00118209
0.00116683
0.00121441
0.00115039
0.00124929
0.00110927
0.00128546
0.00104058
0.00132016
0.000944763
0.00135046
0.000827499
0.00137336
0.000701388
0.00138584
0.000584102
0.00138514
0.000491308
0.0013695
0.000428845
0.0013388
0.000390694
0.00129459
0.000365303
0.00123952
0.000344669
0.00117655
0.000327762
0.00110812
0.000317249
0.00103596
0.00031453
0.000961455
0.000316438
0.000886015
0.000318093
0.000810996
0.000316665
0.00073766
0.000311481
0.000667127
0.000303112
0.000600258
0.000292165
0.000537344
0.000279039
0.000478045
0.000264129
0.00042201
0.000248152
0.000369339
0.000232354
0.000320544
0.000216465
0.000277018
0.000196472
0.000237861
0.000171909
0.000197952
0.000143686
0.000157701
0.000112779
0.000118498
8.02223e-05
8.12239e-05
4.7473e-05
4.67125e-05
1.74201e-05
1.68198e-05
3.4657e-07
3.18547e-07
0.00105963
0.00109296
0.00109049
0.00112254
0.00112115
0.00114588
0.00115247
0.00115821
0.00118604
0.00115352
0.00122267
0.0011263
0.00126141
0.00107278
0.00129977
0.000991784
0.00133504
0.000886406
0.00136441
0.000765849
0.00138492
0.000645367
0.00139365
0.000541827
0.00138833
0.00046621
0.00136797
0.000418168
0.00133318
0.000388109
0.00128593
0.000365634
0.00122892
0.000346402
0.00116473
0.000332063
0.00109538
0.000325589
0.00102255
0.00032661
0.000947824
0.000330125
0.000872672
0.000331875
0.000798454
0.00032996
0.000726423
0.000324393
0.000657617
0.000315767
0.000592523
0.00030465
0.000530996
0.000291589
0.00047284
0.000277389
0.000418239
0.000263323
0.000367832
0.000249054
0.000323042
0.000230667
0.000282753
0.000207522
0.000241644
0.000180332
0.000199875
0.000149917
0.000158773
0.000117088
0.000119166
8.29308e-05
8.16618e-05
4.89015e-05
4.69811e-05
1.78805e-05
1.69369e-05
3.60553e-07
3.22651e-07
0.00102606
0.00106177
0.00105752
0.00109504
0.00108881
0.00112393
0.00112082
0.00114421
0.00115528
0.00115009
0.00119317
0.00113589
0.00123385
0.00109715
0.00127508
0.00103147
0.00131443
0.000939813
0.0013493
0.00082826
0.00137688
0.000708985
0.00139425
0.000598107
0.00139877
0.000509917
0.00138878
0.000449933
0.00136399
0.000412738
0.00132557
0.000387553
0.00127573
0.000366677
0.00121697
0.000349246
0.00115152
0.000338491
0.0010813
0.000336485
0.00100809
0.000340511
0.000933497
0.000344924
0.000859003
0.00034641
0.000785987
0.000344035
0.00071565
0.000338136
0.000648686
0.000329368
0.000585168
0.000318431
0.000525072
0.000306225
0.000468698
0.000294044
0.000416796
0.000281505
0.000370796
0.000264864
0.000329395
0.000243365
0.000287174
0.000217532
0.000244067
0.000188037
0.000201312
0.000155548
0.000159715
0.000120982
0.000119827
8.53962e-05
8.21222e-05
5.02097e-05
4.72657e-05
1.82974e-05
1.70562e-05
3.73336e-07
3.26786e-07
0.000991374
0.00102892
0.00102337
0.00106508
0.00105515
0.00109848
0.00108766
0.00112546
0.00112271
0.00114063
0.00116144
0.00113831
0.00120345
0.00111363
0.00124679
0.00106326
0.00128931
0.000986441
0.00132869
0.000886596
0.00136233
0.000772665
0.00138736
0.00065866
0.001401
0.000560069
0.00140108
0.000487259
0.00138654
0.000440324
0.00135771
0.000410559
0.00131612
0.00038805
0.00126398
0.00036852
0.00120356
0.000353832
0.00113697
0.00034756
0.00106616
0.000349895
0.000992908
0.000355961
0.000918815
0.000360631
0.000845395
0.000361714
0.000774007
0.000358931
0.000705548
0.000352872
0.000640332
0.000344347
0.000578517
0.00033436
0.000520545
0.000324215
0.000467271
0.000313515
0.00042012
0.000298757
0.000377627
0.000279101
0.000334371
0.0002549
0.000290082
0.000226679
0.000245881
0.000194999
0.00020255
0.000160658
0.000160627
0.000124533
0.000120511
8.76525e-05
8.26106e-05
5.14047e-05
4.75664e-05
1.86753e-05
1.7177e-05
3.85009e-07
3.30912e-07
0.000955727
0.00099475
0.000988291
0.00103318
0.00102052
0.00107015
0.0010534
0.00110265
0.00108882
0.00112576
0.00112804
0.00113402
0.00117086
0.00112238
0.00121562
0.00108685
0.00126047
0.00102536
0.00130337
0.000939139
0.00134198
0.000834104
0.00137361
0.000721422
0.00139544
0.00061591
0.001405
0.000530966
0.00140061
0.000472282
0.00138179
0.00043537
0.00134931
0.000410223
0.0013049
0.000389296
0.00125067
0.000371653
0.00118878
0.00036083
0.00112134
0.000359502
0.00105028
0.000365442
0.000977345
0.000372611
0.000904173
0.00037717
0.000832282
0.000377817
0.000762775
0.000374821
0.000696203
0.00036901
0.000632938
0.000361472
0.000573565
0.000353522
0.000519062
0.000344783
0.000470824
0.000332034
0.000427272
0.000314399
0.000383055
0.000292077
0.000337724
0.000265434
0.000292267
0.000234955
0.000247427
0.000201327
0.000203728
0.000165314
0.000161551
0.000127776
0.000121226
8.97111e-05
8.3126e-05
5.24925e-05
4.78812e-05
1.90154e-05
1.73001e-05
3.95511e-07
3.35148e-07
0.000919118
0.00095945
0.000952392
0.000999704
0.000985126
0.0010395
0.00101837
0.00107643
0.00105403
0.00110617
0.00109348
0.00112362
0.00113668
0.00112378
0.00118226
0.00110226
0.00122866
0.00105603
0.00127414
0.000984563
0.00131665
0.000891172
0.00135374
0.000783991
0.0013827
0.000675831
0.00140088
0.000581082
0.00140621
0.000509912
0.00139748
0.000463237
0.00137471
0.000433413
0.00133896
0.000410982
0.00129202
0.000391495
0.00123594
0.000376753
0.0011729
0.000370743
0.00110496
0.000374192
0.00103399
0.000382609
0.000961791
0.000390275
0.000890018
0.000394504
0.000819977
0.000394885
0.000752452
0.000392087
0.000688049
0.000387233
0.000627508
0.000381649
0.00057193
0.000375
0.000522684
0.000364392
0.000478123
0.000348939
0.000433018
0.000328718
0.000386783
0.000303922
0.000340252
0.000274989
0.00029411
0.000242491
0.000248871
0.0002071
0.000204904
0.000169566
0.000162508
0.000130731
0.000121976
9.15854e-05
8.36669e-05
5.34806e-05
4.82098e-05
1.93213e-05
1.74256e-05
4.04888e-07
3.39172e-07
0.00088143
0.000923064
0.000915637
0.000964895
0.000949039
0.00100695
0.000982708
0.00104741
0.00101861
0.00108256
0.00105814
0.0011078
0.00110142
0.00111837
0.00114734
0.00110973
0.00119461
0.0010782
0.00124181
0.00102193
0.0012872
0.000942083
0.00132863
0.000843938
0.00136354
0.000737604
0.00138932
0.000636677
0.00140363
0.000553965
0.00140474
0.00049565
0.00139191
0.000458478
0.00136552
0.000433324
0.00132682
0.000412644
0.00127764
0.00039517
0.00122006
0.00038449
0.00115621
0.000383768
0.00108812
0.000391217
0.00101768
0.000401126
0.000946708
0.000408798
0.000876704
0.000412753
0.000808698
0.000413247
0.000743514
0.000411316
0.000682073
0.000408273
0.000625599
0.00040386
0.000575448
0.000395527
0.000529946
0.000382407
0.000484042
0.000364471
0.000437033
0.000341783
0.000389605
0.000314702
0.000342371
0.000283704
0.000295814
0.000249371
0.000250295
0.000212369
0.000206105
0.000173441
0.000163501
0.000133421
0.000122758
9.32852e-05
8.4232e-05
5.43744e-05
4.85506e-05
1.95954e-05
1.75484e-05
4.13351e-07
3.43214e-07
0.000842458
0.000885511
0.000877877
0.000928854
0.000912186
0.000972829
0.00094646
0.00101611
0.000982692
0.0010556
0.00102229
0.0010873
0.00106549
0.00110683
0.0011114
0.00110973
0.00115899
0.00109197
0.00120717
0.00105074
0.00125451
0.000985509
0.00129917
0.000899093
0.00133886
0.000798717
0.00137108
0.00069597
0.00139341
0.00060429
0.00140374
0.000533888
0.00140076
0.000486801
0.00138411
0.000456681
0.00135443
0.000434492
0.00131311
0.000415442
0.00126204
0.000401004
0.00120331
0.000395354
0.00113902
0.000399732
0.0010712
0.000410128
0.00100178
0.000420678
0.000932466
0.000428201
0.000864505
0.00043219
0.000798955
0.000433402
0.00073692
0.000433082
0.00067976
0.000431062
0.000628832
0.000425139
0.000582481
0.000414501
0.000535876
0.000399023
0.000488229
0.000378673
0.000440081
0.000353722
0.00039196
0.000324559
0.000344308
0.000291675
0.000297474
0.000255656
0.000251737
0.000217171
0.000207343
0.000176963
0.000164534
0.00013586
0.000123576
9.48227e-05
8.48147e-05
5.51789e-05
4.88895e-05
1.98384e-05
1.76689e-05
4.2073e-07
3.47197e-07
0.00080196
0.000846611
0.00083888
0.000891541
0.000874385
0.000937291
0.000909525
0.000982924
0.000946279
0.00102589
0.000986052
0.00106283
0.00102916
0.00108989
0.00107485
0.00110289
0.00112237
0.00109768
0.00117092
0.00107084
0.0012194
0.00102057
0.00126629
0.000947668
0.0013096
0.000856683
0.00134706
0.000756564
0.00137627
0.00065974
0.00139498
0.000578549
0.00140138
0.000519927
0.00139451
0.000482095
0.00137433
0.000456899
0.00134168
0.000436767
0.00129809
0.000419903
0.0012455
0.000409658
0.001186
0.000409494
0.00112169
0.000418181
0.00105465
0.000430391
0.000986715
0.000441139
0.000919385
0.000448672
0.000853939
0.000453201
0.000791665
0.000455777
0.000734065
0.000456309
0.000682519
0.000452944
0.00063544
0.000444932
0.000588247
0.000432067
0.000540106
0.000414262
0.000491418
0.000391696
0.000442614
0.000364668
0.000394095
0.000333587
0.000346179
0.000298964
0.000299138
0.000261391
0.00025321
0.000221542
0.00020862
0.00018016
0.000165604
0.000138064
0.00012441
9.62072e-05
8.54004e-05
5.58997e-05
4.92321e-05
2.00545e-05
1.77888e-05
4.27245e-07
3.51162e-07
0.00075972
0.000806142
0.000798389
0.000852811
0.000835381
0.000900353
0.000871691
0.000948086
0.000909257
0.000993907
0.000949431
0.00103507
0.000992546
0.00106834
0.00103798
0.00108996
0.0010852
0.00109589
0.00113367
0.00108241
0.00118262
0.00104683
0.00123086
0.00098839
0.00127672
0.000909321
0.00131822
0.000815849
0.00135313
0.00071831
0.00137913
0.000629247
0.00139417
0.000559047
0.00139676
0.000511085
0.00138624
0.000480427
0.00136282
0.000458594
0.00132754
0.000440387
0.00128204
0.000426694
0.00122831
0.000421568
0.00116845
0.000426648
0.00110464
0.000438528
0.00103886
0.000451692
0.000972813
0.000462572
0.000907995
0.000470484
0.000845883
0.000476093
0.000788132
0.000479327
0.000736166
0.000478664
0.000688507
0.000473423
0.00064087
0.000463317
0.000592385
0.000448244
0.000543334
0.00042829
0.000494059
0.000403669
0.000444898
0.000374716
0.000396141
0.000341858
0.000348043
0.000305622
0.000300832
0.000266614
0.000254723
0.000225508
0.000209941
0.000183048
0.000166692
0.000140048
0.000125252
9.74466e-05
8.59937e-05
5.65414e-05
4.95785e-05
2.02437e-05
1.79085e-05
4.32959e-07
3.55025e-07
0.000715631
0.000763902
0.000756176
0.000812469
0.000794901
0.000861924
0.000832682
0.00091169
0.000871389
0.00095998
0.000912287
0.0010046
0.000955659
0.00104292
0.00100095
0.00107173
0.00104779
0.00108732
0.00109591
0.0010859
0.00114482
0.00106424
0.00119368
0.00102046
0.00124116
0.000954924
0.00128558
0.000871338
0.00132495
0.000777459
0.00135707
0.000684544
0.00137976
0.000604524
0.00139118
0.000545201
0.00139013
0.000506332
0.0013762
0.000480973
0.00134984
0.00046164
0.00131228
0.00044586
0.00126524
0.000436413
0.00121079
0.00043676
0.0011511
0.000446281
0.00108829
0.00046028
0.00102422
0.000473949
0.000960608
0.000485118
0.000899115
0.000493816
0.000841549
0.000499879
0.000789399
0.000502043
0.00074135
0.000499698
0.000693429
0.000492502
0.000644764
0.000480329
0.000595537
0.000463191
0.000545999
0.000441226
0.000496426
0.000414689
0.000447072
0.000383939
0.000398169
0.000349429
0.000349927
0.000311697
0.00030256
0.000271359
0.000256279
0.000229097
0.000211276
0.000185651
0.00016779
0.000141827
0.000126105
9.85529e-05
8.65956e-05
5.71099e-05
4.99285e-05
2.04082e-05
1.80277e-05
4.37815e-07
3.58789e-07
0.00066976
0.000719792
0.000712132
0.000770322
0.000752716
0.000821829
0.000792212
0.000873701
0.00083239
0.000924291
0.000874374
0.000971822
0.000918353
0.00101426
0.000963745
0.001049
0.0010103
0.00107277
0.00105796
0.00108196
0.00110651
0.00107312
0.00115543
0.00104358
0.00120373
0.00099231
0.00125008
0.000920898
0.00129276
0.000834505
0.00132978
0.000742197
0.00135898
0.000655635
0.00137833
0.000585443
0.00138624
0.000536246
0.00138172
0.000504736
0.00136463
0.000483261
0.00133564
0.000466261
0.00129616
0.000453777
0.00124802
0.000449348
0.00119335
0.00045489
0.00113434
0.000467808
0.001073
0.000483107
0.00101123
0.000497128
0.000950872
0.000508823
0.000893872
0.000517772
0.000841825
0.000522864
0.00079361
0.000523515
0.000745595
0.000519372
0.000696933
0.000510255
0.000647718
0.000496114
0.000598129
0.000477022
0.000548378
0.000453163
0.000498675
0.000424828
0.000449219
0.0003924
0.00040021
0.000356347
0.000351846
0.000317226
0.000304331
0.00027566
0.000257849
0.000232333
0.000212624
0.000187983
0.000168901
0.000143412
0.000126967
9.95308e-05
8.72026e-05
5.76088e-05
5.02815e-05
2.05507e-05
1.81468e-05
4.41858e-07
3.62548e-07
0.000622391
0.000673867
0.000666328
0.000726262
0.000708712
0.000779889
0.000750048
0.000833984
0.000791956
0.000886875
0.000835393
0.000937028
0.00088038
0.000982906
0.000926238