/*--------------------------------*- C++ -*----------------------------------*\
  =========                 |
  \\      /  F ield         | OpenFOAM: The Open Source CFD Toolbox
   \\    /   O peration     | Website:  https://openfoam.org
    \\  /    A nd           | Version:  7
     \\/     M anipulation  |
\*---------------------------------------------------------------------------*/
FoamFile
{
    version     2.0;
    format      ascii;
    class       volScalarField;
    location    "20000";
    object      p;
}
// * * * * * * * * * * * * * * * * * * * * * * * * * * * * * * * * * * * * * //

dimensions      [0 2 -2 0 0 0 0];

internalField   nonuniform List<scalar> 
10981
(
-6.75171e-17
1.80512e-07
1.79871e-06
-2.22456e-05
7.31086e-07
2.34391e-06
-2.13457e-05
-1.16861e-05
-7.59463e-05
1.83763e-06
3.57315e-06
-1.96185e-05
-9.97296e-06
-7.26721e-05
8.50586e-06
-0.000103728
3.45786e-06
5.441e-06
-1.72815e-05
-6.70027e-06
-6.67988e-05
9.38041e-06
-9.80813e-05
4.75923e-05
-7.30639e-05
5.56682e-06
7.83519e-06
-1.43751e-05
-2.63963e-06
-5.99087e-05
1.2118e-05
-8.80839e-05
4.65867e-05
-7.02465e-05
8.82737e-05
5.10367e-05
8.16586e-06
1.07066e-05
-1.0904e-05
1.8656e-06
-5.2378e-05
1.59663e-05
-7.69906e-05
4.68152e-05
-6.27681e-05
8.68221e-05
4.69032e-05
0.00011028
0.000166294
1.12531e-05
1.40208e-05
-6.90245e-06
6.75917e-06
-4.42857e-05
2.02611e-05
-6.55857e-05
4.82213e-05
-5.38609e-05
8.59156e-05
4.52148e-05
0.000109286
0.000159955
0.000123045
0.000248121
1.48243e-05
1.77387e-05
-2.41306e-06
1.19706e-05
-3.57988e-05
2.48597e-05
-5.39394e-05
5.01179e-05
-4.46091e-05
8.57185e-05
4.48202e-05
0.000108537
0.000154003
0.000122342
0.000242589
0.000131772
0.000301665
1.88744e-05
2.1824e-05
2.54598e-06
1.74176e-05
-2.7028e-05
2.96871e-05
-4.21801e-05
5.23597e-05
-3.49867e-05
8.57843e-05
4.48485e-05
0.000108195
0.000148525
0.000121741
0.000236524
0.000131245
0.000297433
0.000138021
0.000337947
2.33942e-05
2.62484e-05
7.95803e-06
2.30342e-05
-1.80286e-05
3.46502e-05
-3.04244e-05
5.49433e-05
-2.4983e-05
8.60183e-05
4.5356e-05
0.000108038
0.000143002
0.000121369
0.000230318
0.000130759
0.000292468
0.000137619
0.000334788
0.000142737
0.000362129
2.8371e-05
3.09816e-05
1.3807e-05
2.87673e-05
-8.85518e-06
3.96573e-05
-1.87808e-05
5.78059e-05
-1.47022e-05
8.64732e-05
4.65246e-05
0.000107973
0.000137512
0.000121134
0.000223708
0.000130394
0.000287112
0.00013723
0.000330908
0.000142431
0.000359857
0.000146317
0.000377414
3.37824e-05
3.60061e-05
2.00722e-05
3.45768e-05
4.55239e-07
4.46543e-05
-7.30208e-06
6.08627e-05
-4.21118e-06
8.71706e-05
4.84397e-05
0.000108021
0.000132296
0.000120987
0.00021664
0.0001301
0.000281173
0.000136905
0.00032655
0.000142125
0.000356912
0.000146085
0.000375835
0.000149251
0.000386861
3.9601e-05
4.12996e-05
2.67292e-05
4.04335e-05
9.86324e-06
4.9615e-05
3.95667e-06
6.40394e-05
6.39699e-06
8.809e-05
5.11234e-05
0.000108204
0.00012754
0.000120934
0.000209327
0.000129859
0.000274636
0.000136615
0.000321637
0.000141856
0.0003535
0.000145851
0.00037368
0.000149068
0.000385721
0.000151726
0.000393905
4.57901e-05
4.68425e-05
3.37412e-05
4.63217e-05
1.93314e-05
5.45303e-05
1.49799e-05
6.72863e-05
1.70103e-05
8.91932e-05
5.45552e-05
0.000108525
0.000123398
0.000120995
0.000201912
0.000129687
0.000267585
0.000136347
0.000316122
0.000141603
0.000349582
0.000145642
0.000371093
0.000148885
0.000384116
0.000151581
0.000393004
0.000153837
0.00039921
5.23079e-05
5.26148e-05
4.10654e-05
5.22292e-05
2.88299e-05
5.93986e-05
2.57253e-05
7.05573e-05
2.75604e-05
9.04467e-05
5.87634e-05
0.000108973
0.000119994
0.000121186
0.000194593
0.000129601
0.000260118
0.000136114
0.000310036
0.000141357
0.000345124
0.000145442
0.00036807
0.000148722
0.00038214
0.00015144
0.000391719
0.00015372
0.000398468
0.000155746
0.000403432
5.91068e-05
5.85939e-05
4.86515e-05
5.81489e-05
3.83115e-05
6.42358e-05
3.61901e-05
7.38549e-05
3.79886e-05
9.18125e-05
6.36321e-05
0.000109526
0.000117405
0.00012151
0.000187479
0.00012962
0.000252337
0.000135932
0.000303421
0.000141124
0.000340134
0.000145242
0.000364587
0.000148566
0.000379804
0.000151318
0.000390116
0.000153612
0.000397388
0.000155646
0.000402798
0.000157566
0.000406846
6.61316e-05
6.47601e-05
5.64513e-05
6.40821e-05
4.77344e-05
6.9054e-05
4.63662e-05
7.71757e-05
4.82301e-05
9.32516e-05
6.91392e-05
0.000110152
0.000115741
0.000121958
0.000180769
0.000129767
0.000244351
0.000135823
0.000296328
0.000140916
0.000334609
0.000145046
0.000360629
0.000148407
0.000377086
0.000151202
0.000388213
0.000153526
0.000396028
0.000155559
0.000401859
0.000157468
0.000406287
0.000159441
0.000409659
7.33298e-05
7.10842e-05
6.44026e-05
7.00283e-05
5.7063e-05
7.38765e-05
5.6253e-05
8.05391e-05
5.82143e-05
9.47567e-05
7.51723e-05
0.000110816
0.000115043
0.000122506
0.000174601
0.000130059
0.000236288
0.000135806
0.000288813
0.000140747
0.000328567
0.000144859
0.000356187
0.000148247
0.00037397
0.000151084
0.000386001
0.000153446
0.000394416
0.000155497
0.000400667
0.000157386
0.000405446
0.000159337
0.000409155
0.000161345
0.000411965
8.06438e-05
7.7539e-05
7.2446e-05
7.59905e-05
6.62673e-05
7.87191e-05
6.58552e-05
8.39707e-05
6.78961e-05
9.63338e-05
8.16373e-05
0.000111485
0.000115303
0.000123116
0.000169117
0.000130501
0.000228304
0.000135906
0.000280945
0.000140638
0.000322031
0.000144691
0.000351255
0.000148089
0.000370444
0.000150964
0.000383463
0.000153364
0.000392544
0.000155444
0.000399254
0.000157331
0.000404367
0.000159244
0.000408375
0.000161232
0.000411526
0.000163288
0.000413246
8.8018e-05
8.40922e-05
8.05257e-05
8.197e-05
7.53076e-05
8.35963e-05
7.51649e-05
8.74994e-05
7.7271e-05
9.79993e-05
8.84104e-05
0.000112139
0.000116502
0.000123738
0.000164453
0.00013108
0.000220547
0.000136151
0.000272829
0.000140609
0.000315027
0.000144554
0.000345825
0.000147938
0.000366485
0.000150842
0.000380584
0.000153279
0.000390404
0.000155389
0.000397621
0.000157285
0.000403094
0.000159174
0.00040737
0.000161123
0.00041081
0.000163165
0.000412899
0.000165281
0.000413556
9.54008e-05
9.07084e-05
8.85796e-05
8.79647e-05
8.41595e-05
8.85217e-05
8.4184e-05
9.1147e-05
8.63227e-05
9.97989e-05
9.54047e-05
0.000112781
0.000118599
0.00012432
0.000160714
0.000131759
0.000213177
0.000136559
0.000264567
0.000140687
0.000307606
0.000144468
0.000339908
0.000147802
0.00036208
0.000150721
0.000377346
0.00015319
0.00038798
0.00015533
0.000395759
0.000157238
0.000401631
0.000159113
0.000406191
0.000161031
0.00040987
0.000163036
0.00041228
0.000165147
0.000413302
0.000167282
0.000413005
0.00010274
9.73566e-05
9.65604e-05
9.39706e-05
9.27884e-05
9.35077e-05
9.29272e-05
9.49257e-05
9.50234e-05
0.000101782
0.000102509
0.000113435
0.000121492
0.000124821
0.000157975
0.000132484
0.000206358
0.000137134
0.000256307
0.000140901
0.000299833
0.000144454
0.000333512
0.000147692
0.000357218
0.000150607
0.000373731
0.0001531
0.000385258
0.000155267
0.000393661
0.00015719
0.000399974
0.000159051
0.000404848
0.000160942
0.00040877
0.000162914
0.000411439
0.000164995
0.000412789
0.000167145
0.000412835
0.000169207
0.000411687
0.00010999
0.000104001
0.000104416
9.99815e-05
0.000101177
9.8554e-05
0.000101379
9.8844e-05
0.000103401
0.000103988
0.000109637
0.000114154
0.000125077
0.000125216
0.000156242
0.000133188
0.000200235
0.000137853
0.000248186
0.00014128
0.000291797
0.000144538
0.000326669
0.000147625
0.000351893
0.000150507
0.000369718
0.00015301
0.00038222
0.0001552
0.000391313
0.000157137
0.000398115
0.000158988
0.000403337
0.000160852
0.000407526
0.00016279
0.00041045
0.000164839
0.000412062
0.000166972
0.000412424
0.000169075
0.000411591
0.000170946
0.000409685
0.000117111
0.000110608
0.000112103
0.000105985
0.00010931
0.000103663
0.000109539
0.000102906
0.000111456
0.000106451
0.000116706
0.000115006
0.000129241
0.000125516
0.000155536
0.000133801
0.000194947
0.000138671
0.000240361
0.000141839
0.000283603
0.000144749
0.000319427
0.000147623
0.000346108
0.000150431
0.000365294
0.000152927
0.000378852
0.000155131
0.000388701
0.00015708
0.000396044
0.000158921
0.000401653
0.000160759
0.000406133
0.000162661
0.000409331
0.000164674
0.000411202
0.000166782
0.000411812
0.000168893
0.000411276
0.000170828
0.000409652
0.000172532
0.000407117
0.000124068
0.000117145
0.000119589
0.000111968
0.000117164
0.000108827
0.000117414
0.000107108
0.000119185
0.000109187
0.00012367
0.000116068
0.000133831
0.000125763
0.000155796
0.000134274
0.000190587
0.000139513
0.000233003
0.000142575
0.000275376
0.00014512
0.00031185
0.00014771
0.000339876
0.000150395
0.000360448
0.000152859
0.000375133
0.000155063
0.00038581
0.00015702
0.000393752
0.000158851
0.000399789
0.000160663
0.000404589
0.000162528
0.000408077
0.000164501
0.000410224
0.000166578
0.000411081
0.000168681
0.000410776
0.000170649
0.000409427
0.000172428
0.000407128
0.000173951
0.000404243
0.000130835
0.000123581
0.000126842
0.000117912
0.000124729
0.000114038
0.000124987
0.000111441
0.00012662
0.000112194
0.000130466
0.00011741
0.000138757
0.000126031
0.000156924
0.000134582
0.000187235
0.000140294
0.000226268
0.00014345
0.000267261
0.000145674
0.000304019
0.000147916
0.000333231
0.000150417
0.000355175
0.000152815
0.000371046
0.000155002
0.000382621
0.000156958
0.000391224
0.000158777
0.000397739
0.000160564
0.000402891
0.00016239
0.000406686
0.000164319
0.000409127
0.00016636
0.000410249
0.000168447
0.000410174
0.000170428
0.000409037
0.000172253
0.000406977
0.000173864
0.000404275
0.000175116
0.000401125
0.000137384
0.000129891
0.000133845
0.000123799
0.000131999
0.000119281
0.000132262
0.000115896
0.000133747
0.000115463
0.000137098
0.000119079
0.000143879
0.000126418
0.000158841
0.000134745
0.000184885
0.000140938
0.000220294
0.000144399
0.000259417
0.000146418
0.000296044
0.000148271
0.000326211
0.000150524
0.000349481
0.000152811
0.000366575
0.000154957
0.000379121
0.0001569
0.000388447
0.000158701
0.000395491
0.000160461
0.000401031
0.000162248
0.000405156
0.000164131
0.000407907
0.000166129
0.000409312
0.000168194
0.000409486
0.000170182
0.000408561
0.000172032
0.000406686
0.0001737
0.000404176
0.000175049
0.000401165
0.000176022
0.000397778
0.000143698
0.000136047
0.000140572
0.000129609
0.000138967
0.000124539
0.000139235
0.000120457
0.000140585
0.000118972
0.000143513
0.000121103
0.000149114
0.000127021
0.000161395
0.000134823
0.000183543
0.000141391
0.000215186
0.000145331
0.000251996
0.000147332
0.000288042
0.000148802
0.000318891
0.000150741
0.000343382
0.000152865
0.000361715
0.000154939
0.000375292
0.000156851
0.000385405
0.000158627
0.000393033
0.000160357
0.000399002
0.000162103
0.000403482
0.000163938
0.000406561
0.000165889
0.000408267
0.000167924
0.000408708
0.000169912
0.000408014
0.000171782
0.000406325
0.000173485
0.000403963
0.000174906
0.000401103
0.000175979
0.000397821
0.000176649
0.000394188
0.000149765
0.000142029
0.000147019
0.000135321
0.000145622
0.000129789
0.000145906
0.000125103
0.000147133
0.000122696
0.000149717
0.00012348
0.000154385
0.00012793
0.000164465
0.000134912
0.000183123
0.000141643
0.000211032
0.000146148
0.000245158
0.000148359
0.000280165
0.000149525
0.000311355
0.000151098
0.000336908
0.000153001
0.000356465
0.000154963
0.000371121
0.000156821
0.00038208
0.000158559
0.000390349
0.000160253
0.000396794
0.000161956
0.000401659
0.00016374
0.000405084
0.000165641
0.000407108
0.00016764
0.000407836
0.000169621
0.000407391
0.000171506
0.000405908
0.000173241
0.000403696
0.000174715
0.000400954
0.000175869
0.000397795
0.000176648
0.000394227
0.000176267
0.000390539
0.000155572
0.00014782
0.000153175
0.000140916
0.000151973
0.000135011
0.00015227
0.000129815
0.000153399
0.000126609
0.000155691
0.000126196
0.000159613
0.000129202
0.000167927
0.000135126
0.000183553
0.000141736
0.000207855
0.000146771
0.00023903
0.000149409
0.000272563
0.000150431
0.000303714
0.000151621
0.00033011
0.000153244
0.000350835
0.000155047
0.000366594
0.000156823
0.000378456
0.000158506
0.000387427
0.000160154
0.000394396
0.000161808
0.000399678
0.00016354
0.000403472
0.000165387
0.000405835
0.000167345
0.000406865
0.000169312
0.000406686
0.000171207
0.000405429
0.000172971
0.000403387
0.000174496
0.000400769
0.000175719
0.000397713
0.000176613
0.000394236
0.000176341
0.000390594
0.000177709
0.000386026
0.000161115
0.000153405
0.000159035
0.000146375
0.000158013
0.000140181
0.000158332
0.000134568
0.000159379
0.000130678
0.000161436
0.000129219
0.000164771
0.000130867
0.000171652
0.000135577
0.000184695
0.000141757
0.000205648
0.000147165
0.000233734
0.000150376
0.000265381
0.000151476
0.000296092
0.000152329
0.000323062
0.000153622
0.000344845
0.000155213
0.000361706
0.000156872
0.00037452
0.000158478
0.00038425
0.000160068
0.000391795
0.000161666
0.00039753
0.000163339
0.000401717
0.000165129
0.000404438
0.00016704
0.000405791
0.000168987
0.000405897
0.000170886
0.000404881
0.000172676
0.00040303
0.000174252
0.000400553
0.000175544
0.000397607
0.000176547
0.000394221
0.00017646
0.000390683
0.000177801
0.000386109
0.000179856
0.000383282
0.000166387
0.00015877
0.000164601
0.00015168
0.000163745
0.000145278
0.000164093
0.000139334
0.000165077
0.000134874
0.000166942
0.000132512
0.000169806
0.000132923
0.000175556
0.000136353
0.000186442
0.000141821
0.000204348
0.000147348
0.000229329
0.000151163
0.000258778
0.000152583
0.000288621
0.000153219
0.000315855
0.000154158
0.000338534
0.000155486
0.000356462
0.000156985
0.00037026
0.000158489
0.000380802
0.000160003
0.000388975
0.000161533
0.000395204
0.000163142
0.00039981
0.000164869
0.000402912
0.000166727
0.000404608
0.000168648
0.000405018
0.000170545
0.000404262
0.000172357
0.000402619
0.000173981
0.000400302
0.000175343
0.000397483
0.00017645
0.000394199
0.000176582
0.000390787
0.000177948
0.000386302
0.000179926
0.000383363
0.000182562
0.000380672
0.000171386
0.000163907
0.000169872
0.000156818
0.000169174
0.00015028
0.000169556
0.000144089
0.000170498
0.000139164
0.000172208
0.000136037
0.0001747
0.000135345
0.000179546
0.000137511
0.000188656
0.000142051
0.000203885
0.000147398
0.000225844
0.00015171
0.000252861
0.000153644
0.000281458
0.000154258
0.000308597
0.00015487
0.000331963
0.000155889
0.000350881
0.000157184
0.000365672
0.000158555
0.000377067
0.000159971
0.000385919
0.000161419
0.000392687
0.000162954
0.000397745
0.000164612
0.00040125
0.000166411
0.00040331
0.000168297
0.000404042
0.000170187
0.000403565
0.000172015
0.00040215
0.000173685
0.000400009
0.000175116
0.000397332
0.000176318
0.000394164
0.000176672
0.00039088
0.000178097
0.000386543
0.000180028
0.000383555
0.000182616
0.000380724
0.00018562
0.000378413
0.000176115
0.000168808
0.00017485
0.000161773
0.000174303
0.000155166
0.000174725
0.000148806
0.000175642
0.000143515
0.000177232
0.000139751
0.00017943
0.0001381
0.000183561
0.000139073
0.000191222
0.000142552
0.000204142
0.00014743
0.000223267
0.000152018
0.000247732
0.000154555
0.000274733
0.000155377
0.000301419
0.000155758
0.000325202
0.000156446
0.000344992
0.000157489
0.000360752
0.000158692
0.000373032
0.000159989
0.000382615
0.000161336
0.000389965
0.000162782
0.000395507
0.000164362
0.000399439
0.000166095
0.000401885
0.000167939
0.000402962
0.000169813
0.000402784
0.000171653
0.000401616
0.000173364
0.000399671
0.000174864
0.000397149
0.000176155
0.000394112
0.000176725
0.000390954
0.000178213
0.000386768
0.000180131
0.0003838
0.000182686
0.000380856
0.00018566
0.000378449
0.000188987
0.000376232
0.000180573
0.000173469
0.00017954
0.000166534
0.000179139
0.000159918
0.000179606
0.00015346
0.000180512
0.000147894
0.000182012
0.00014361
0.000183981
0.000141142
0.000187544
0.000141031
0.000194039
0.0001434
0.000204999
0.000147572
0.000221552
0.00015215
0.000243427
0.000155243
0.000268587
0.000156478
0.000294447
0.000156794
0.000318358
0.000157173
0.000338842
0.000157924
0.000355516
0.000158921
0.00036869
0.000160072
0.000379045
0.000161297
0.000387023
0.000162638
0.000393086
0.000164127
0.000397472
0.000165784
0.000400327
0.000167577
0.000401767
0.000169428
0.00040191
0.000171273
0.000401009
0.000173021
0.000399278
0.000174585
0.000396928
0.000175961
0.000394033
0.000176744
0.000391004
0.000178291
0.000386964
0.000180212
0.000384035
0.000182749
0.000381035
0.000185699
0.000378548
0.000189015
0.000376255
0.000192583
0.000374191
0.000184763
0.000177886
0.000183947
0.00017109
0.000183686
0.000164519
0.000184206
0.000158027
0.000185113
0.00015227
0.000186548
0.000147576
0.000188339
0.000144427
0.000191458
0.000143355
0.000197011
0.000144634
0.000206336
0.000147939
0.000220606
0.000152217
0.000239986
0.000155692
0.000263107
0.000157457
0.000287823
0.000157918
0.000311532
0.000158068
0.000332501
0.000158509
0.000349989
0.000159262
0.000364044
0.000160239
0.000375198
0.00016132
0.000383846
0.000162534
0.000390468
0.000163917
0.000395336
0.000165486
0.000398624
0.000167218
0.000400452
0.000169036
0.000400934
0.000170878
0.00040032
0.000172657
0.000398825
0.000174283
0.00039666
0.000175738
0.000393923
0.000176728
0.000391024
0.000178333
0.000387129
0.000180271
0.000384246
0.000182795
0.000381216
0.000185724
0.000378685
0.000189028
0.000376325
0.000192599
0.000374205
0.000196367
0.000372218
0.00018869
0.000182057
0.000188076
0.000175434
0.000187953
0.000168955
0.000188527
0.000162486
0.00018945
0.000156612
0.000190838
0.000151609
0.0001925
0.000147904
0.000195267
0.000146003
0.000200066
0.000146261
0.000208048
0.000148619
0.000220328
0.000152351
0.000237366
0.000155951
0.000258371
0.000158234
0.000281659
0.000159038
0.000304855
0.000159108
0.000326049
0.000159258
0.000344212
0.000159734
0.0003591
0.000160508
0.000371066
0.000161422
0.00038042
0.000162489
0.000387637
0.000163744
0.00039302
0.00016521
0.000396765
0.000166867
0.000399003
0.000168642
0.000399847
0.000170473
0.000399542
0.000172275
0.000398301
0.000173958
0.000396339
0.000175488
0.000393772
0.000176678
0.000391009
0.000178341
0.000387259
0.000180307
0.000384431
0.000182825
0.000381389
0.000185733
0.000378828
0.000189019
0.000376425
0.000192589
0.000374254
0.000196373
0.000372225
0.000200293
0.00037032
0.000192359
0.000185982
0.000191936
0.000179561
0.000191946
0.000173214
0.000192581
0.000166817
0.000193525
0.000160891
0.000194887
0.000155671
0.000196456
0.000151525
0.000198945
0.000148925
0.000203146
0.000148264
0.000210027
0.00014966
0.00022061
0.000152673
0.000235511
0.000156121
0.000254404
0.000158787
0.000276065
0.000160056
0.000298445
0.000160234
0.000319588
0.00016017
0.000338241
0.000160354
0.000353883
0.000160896
0.000366648
0.000161624
0.000376734
0.00016252
0.000384581
0.000163626
0.00039051
0.000164968
0.000394739
0.000166535
0.000397408
0.000168253
0.000398634
0.000170062
0.000398662
0.00017188
0.000397698
0.000173614
0.000395954
0.000175214
0.000393574
0.000176594
0.000390949
0.000178314
0.000387347
0.00018032
0.000384586
0.000182837
0.000381548
0.000185728
0.000378966
0.000188994
0.00037653
0.000192549
0.000374326
0.000196341
0.000372257
0.00020029
0.000370321
0.000204328
0.000368473
0.000195777
0.000189665
0.000195533
0.000183467
0.000195673
0.000177282
0.000196371
0.000171002
0.000197346
0.000165083
0.000198694
0.000159726
0.000200202
0.000155243
0.000202482
0.000152072
0.000206201
0.000150607
0.000212184
0.000151079
0.000221345
0.000153275
0.000234341
0.00015633
0.000251195
0.000159163
0.000271118
0.000160896
0.000292416
0.000161362
0.000313229
0.000161219
0.000332157
0.000161133
0.000348428
0.000161421
0.000361952
0.000161943
0.000372779
0.000162649
0.000381286
0.00016358
0.000387793
0.000164777
0.000392531
0.000166233
0.000395657
0.000167879
0.000397289
0.000169653
0.00039767
0.000171476
0.000397002
0.000173254
0.000395496
0.000174921
0.000393317
0.000176479
0.00039084
0.000178254
0.000387387
0.000180308
0.000384704
0.000182831
0.00038169
0.000185711
0.000379095
0.000188957
0.000376632
0.000192492
0.000374402
0.000196273
0.000372306
0.000200238
0.000370339
0.000204316
0.000368469
0.00020844
0.000366673
0.00019895
0.000193107
0.000198876
0.000187148
0.000199144
0.000181153
0.000199906
0.000175025
0.000200921
0.000169165
0.000202268
0.000163741
0.000203735
0.000159017
0.000205852
0.000155392
0.000209198
0.000153243
0.000214451
0.000152863
0.00022242
0.000154214
0.000233761
0.000156698
0.000248715
0.000159453
0.000266857
0.000161531
0.000286864
0.000162403
0.00030708
0.000162353
0.000326044
0.000162069
0.000342788
0.000162097
0.000356998
0.000162393
0.000368555
0.000162895
0.000377741
0.000163632
0.000384854
0.000164656
0.000390129
0.000165977
0.000393736
0.000167531
0.000395798
0.000169255
0.000396554
0.000171071
0.000396204
0.000172883
0.000394955
0.000174611
0.000392993
0.000176334
0.000390672
0.000178162
0.000387374
0.000180273
0.000384779
0.000182808
0.000381808
0.000185681
0.000379211
0.000188909
0.000376729
0.000192424
0.000374475
0.000196187
0.000372356
0.000200144
0.000370369
0.000204245
0.000368476
0.000208419
0.000366664
0.000212601
0.000364908
0.000201888
0.000196313
0.000201975
0.000190604
0.000202367
0.000184821
0.000203198
0.000178875
0.000204256
0.000173117
0.000205609
0.000167685
0.00020706
0.000162805
0.000209057
0.000158832
0.000212101
0.00015612
0.000216767
0.000154984
0.000223752
0.00015551
0.000233669
0.000157317
0.000246893
0.000159774
0.00026328
0.000162004
0.000281867
0.000163288
0.000301251
0.000163492
0.000319999
0.000163137
0.000337034
0.000162931
0.000351821
0.000162989
0.000364071
0.000163275
0.000373942
0.000163802
0.000381682
0.000164629
0.000387523
0.000165788
0.000391636
0.000167225
0.000394147
0.000168879
0.000395301
0.000170674
0.000395291
0.000172507
0.00039432
0.00017429
0.000392592
0.000176163
0.000390439
0.000178043
0.000387299
0.000180215
0.000384806
0.000182767
0.000381894
0.000185639
0.000379308
0.000188852
0.000376818
0.000192347
0.000374544
0.00019609
0.000372404
0.000200031
0.000370399
0.000204128
0.000368489
0.000208332
0.000366661
0.000212573
0.000364896
0.00021679
0.000363174
0.000204601
0.00019929
0.00020484
0.000193836
0.000205353
0.00018828
0.000206254
0.00018254
0.00020736
0.00017692
0.000208726
0.000171533
0.000210173
0.000166571
0.000212087
0.000162347
0.000214894
0.000159183
0.000219086
0.0001574
0.000225255
0.000157158
0.000233973
0.000158246
0.000245651
0.00016024
0.000260368
0.000162409
0.000277469
0.000163997
0.000295833
0.000164554
0.000314126
0.000164287
0.000331244
0.000163917
0.000346467
0.000163741
0.000359345
0.000163803
0.00036989
0.000164111
0.000378272
0.00016472
0.000384699
0.000165687
0.000389338
0.00016698
0.000392325
0.000168542
0.0003939
0.000170295
0.000394252
0.000172136
0.000393579
0.000173965
0.000392103
0.00017597
0.000390132
0.0001779
0.000387159
0.000180136
0.000384778
0.00018271
0.000381944
0.000185585
0.000379381
0.000188786
0.000376892
0.000192262
0.000374606
0.000195985
0.000372448
0.000199907
0.000370425
0.00020399
0.000368501
0.000208193
0.00036666
0.000212471
0.000364884
0.000216754
0.000363159
0.000220983
0.000361464
0.000207099
0.000202045
0.000207481
0.000196847
0.000208112
0.00019153
0.000209085
0.000186012
0.00021024
0.000180559
0.000211628
0.000175261
0.000213082
0.000170283
0.000214939
0.000165891
0.000217561
0.000162382
0.00022137
0.00016006
0.000226871
0.000159129
0.00023457
0.000159506
0.000244902
0.000160933
0.000258074
0.000162854
0.000273681
0.000164572
0.000290888
0.000165481
0.000308522
0.000165444
0.000325505
0.000165028
0.000340999
0.000164654
0.00035441
0.000164486
0.00036559
0.000164572
0.000374613
0.000164954
0.000381645
0.000165703
0.000386836
0.000166819
0.00039032
0.00016826
0.000392337
0.000169951
0.000393074
0.000171781
0.000392721
0.000173644
0.000391517
0.000175764
0.000389742
0.000177738
0.000386945
0.000180037
0.000384689
0.000182638
0.00038195
0.000185521
0.000379424
0.000188712
0.000376949
0.000192171
0.000374656
0.000195873
0.000372485
0.000199776
0.000370447
0.000203842
0.000368508
0.000208033
0.000366656
0.000212312
0.000364871
0.000216638
0.000363139
0.000220942
0.000361445
0.000225166
0.000359772
0.000209393
0.000204586
0.000209911
0.000199643
0.000210655
0.000194568
0.0002117
0.000189286
0.000212906
0.000184022
0.000214321
0.000178852
0.000215792
0.000173911
0.000217612
0.000169426
0.000220089
0.000165666
0.00022359
0.00016291
0.000228543
0.000161384
0.000235392
0.000161094
0.000244557
0.000161908
0.000256328
0.00016344
0.000270496
0.0001651
0.000286459
0.000166262
0.000303268
0.000166534
0.000319905
0.000166213
0.000335491
0.000165714
0.000349312
0.000165331
0.000361063
0.000165196
0.000370713
0.000165351
0.000378357
0.000165865
0.000384117
0.000166771
0.000388119
0.000168057
0.000390602
0.000169658
0.000391745
0.000171456
0.000391735
0.000173338
0.000390822
0.000175551
0.000389261
0.000177565
0.00038665
0.000179923
0.000384533
0.000182553
0.000381905
0.000185448
0.00037943
0.000188632
0.000376982
0.000192075
0.000374692
0.000195757
0.000372513
0.000199638
0.000370463
0.000203686
0.000368511
0.000207862
0.000366648
0.000212132
0.000364853
0.000216462
0.000363115
0.000220814
0.000361418
0.000225119
0.000359751
0.000229321
0.000358095
0.000211495
0.000206924
0.00021214
0.00020223
0.000212995
0.000197398
0.000214111
0.000192359
0.000215372
0.0001873
0.000216813
0.000182288
0.00021831
0.000177428
0.000220108
0.000172916
0.000222474
0.000168988
0.000225727
0.000165899
0.000230228
0.000163876
0.000236369
0.000162984
0.000244537
0.000163188
0.000255057
0.000164241
0.000267866
0.000165679
0.000282571
0.000166943
0.000298423
0.000167511
0.000314529
0.000167404
0.000330023
0.000166889
0.000344106
0.000166337
0.000356342
0.000165988
0.000366581
0.000165921
0.000374833
0.000166197
0.000381174
0.000166866
0.000385713
0.000167963
0.000388681
0.00016944
0.000390253
0.000171178
0.000390609
0.000173061
0.000390008
0.000175345
0.00038868
0.000177389
0.000386268
0.0001798
0.000384305
0.000182459
0.000381804
0.000185367
0.000379395
0.000188549
0.000376987
0.000191977
0.000374708
0.000195639
0.000372529
0.000199498
0.00037047
0.000203525
0.000368508
0.000207684
0.000366634
0.000211941
0.00036483
0.000216264
0.000363085
0.000220622
0.000361384
0.00022498
0.000359717
0.000229269
0.000358071
0.000233438
0.000356429
0.000213417
0.00020907
0.000214183
0.000204615
0.000215142
0.000200023
0.000216329
0.000195228
0.000217644
0.000190388
0.000219118
0.000185555
0.000220642
0.000180813
0.00022243
0.000176331
0.000224715
0.000172307
0.000227765
0.000168976
0.000231896
0.000166554
0.000237444
0.000165138
0.000244764
0.000164765
0.000254183
0.000165299
0.000265744
0.000166402
0.000279212
0.000167606
0.000294036
0.000168378
0.000309452
0.000168535
0.000324674
0.00016813
0.000338856
0.000167488
0.000351468
0.000166949
0.000362237
0.00016667
0.000371076
0.000166715
0.000378002
0.000167134
0.000383093
0.000168008
0.000386567
0.000169323
0.000388588
0.000170971
0.000389333
0.00017283
0.000389063
0.000175158
0.000387987
0.000177222
0.00038579
0.000179675
0.000383996
0.000182361
0.00038164
0.000185284
0.000379311
0.000188463
0.000376957
0.000191879
0.000374701
0.000195521
0.000372529
0.000199358
0.000370466
0.000203362
0.000368496
0.000207501
0.000366613
0.000211742
0.000364801
0.000216055
0.000363049
0.000220408
0.000361343
0.000224775
0.000359674
0.000229121
0.000358032
0.000233381
0.000356402
0.000237504
0.000354769
0.00021517
0.000211033
0.00021605
0.000206807
0.000217111
0.000202449
0.000218367
0.000197897
0.000219737
0.00019328
0.000221243
0.000188642
0.000222799
0.00018405
0.000224588
0.000179642
0.000226811
0.000175587
0.000229698
0.000172094
0.00023352
0.000169364
0.000238576
0.000167511
0.000245173
0.000166618
0.000253637
0.000166634
0.00026407
0.000167331
0.000276359
0.000168339
0.000290112
0.000169181
0.000304733
0.000169574
0.000319519
0.000169371
0.000333634
0.000168748
0.000346493
0.000168072
0.000357709
0.000167598
0.000367098
0.000167427
0.000374601
0.000167598
0.000380253
0.000168225
0.000384247
0.000169341
0.000386738
0.000170861
0.000387894
0.000172665
0.000387979
0.000175009
0.000387176
0.000177075
0.000385208
0.000179558
0.000383601
0.000182266
0.000381404
0.000185202
0.000379173
0.000188379
0.000376888
0.000191785
0.000374666
0.000195406
0.000372509
0.00019922
0.000370449
0.0002032
0.000368475
0.000207316
0.000366585
0.000211539
0.000364765
0.000215838
0.000363006
0.000220182
0.000361295
0.000224546
0.000359623
0.000228904
0.00035798
0.000233224
0.000356357
0.000237443
0.00035474
0.000241511
0.000353112
0.000216767
0.000212825
0.000217753
0.000208817
0.000218911
0.000204683
0.000220236
0.000200368
0.000221659
0.000195977
0.000223199
0.000191545
0.000224789
0.000187126
0.000226585
0.000182829
0.000228762
0.000178796
0.000231516
0.000175211
0.00023509
0.000172257
0.000239725
0.000170053
0.000245713
0.000168711
0.000253351
0.000168237
0.000262776
0.000168496
0.000273961
0.000169213
0.000286653
0.000169993
0.000300406
0.00017053
0.00031462
0.000170557
0.000328514
0.000170063
0.000341478
0.000169331
0.000353039
0.000168697
0.00036292
0.000168332
0.000370976
0.00016827
0.000377187
0.000168641
0.000381716
0.000169528
0.000384695
0.000170879
0.000386284
0.000172594
0.000386744
0.000174919
0.000386237
0.000176968
0.000384516
0.000179461
0.000383111
0.000182183
0.000381091
0.000185126
0.000378974
0.000188301
0.000376772
0.000191695
0.000374597
0.000195298
0.000372466
0.000199088
0.000370415
0.000203043
0.000368442
0.000207135
0.000366547
0.000211335
0.000364721
0.000215616
0.000362956
0.000219949
0.00036124
0.000224306
0.000359564
0.000228663
0.000357919
0.000232997
0.000356298
0.00023728
0.00035469
0.000241447
0.000353082
0.000245452
0.000351456
0.000218217
0.000214458
0.000219305
0.000210653
0.000220556
0.000206733
0.000221948
0.000202648
0.000223424
0.000198478
0.000224998
0.000194259
0.000226623
0.000190029
0.000228432
0.000185871
0.000230574
0.000181906
0.000233222
0.00017829
0.000236584
0.000175187
0.000240874
0.000172715
0.000246342
0.000170999
0.000253267
0.000170084
0.0002618
0.000169906
0.000271972
0.000170277
0.000283643
0.000170889
0.00029649
0.000171456
0.000310027
0.000171672
0.000323562
0.000171373
0.000336486
0.000170688
0.000348274
0.000169955
0.000358569
0.000169421
0.000367141
0.000169151
0.000373902
0.000169276
0.000378969
0.000169914
0.000382451
0.00017106
0.000384493
0.000172645
0.000385349
0.000174914
0.00038516