/*--------------------------------*- C++ -*----------------------------------*\
  =========                 |
  \\      /  F ield         | OpenFOAM: The Open Source CFD Toolbox
   \\    /   O peration     | Website:  https://openfoam.org
    \\  /    A nd           | Version:  7
     \\/     M anipulation  |
\*---------------------------------------------------------------------------*/
FoamFile
{
    version     2.0;
    format      ascii;
    class       volVectorField;
    location    "20000";
    object      U;
}
// * * * * * * * * * * * * * * * * * * * * * * * * * * * * * * * * * * * * * //

dimensions      [0 1 -1 0 0 0 0];

internalField   nonuniform List<vector> 
10981
(
(0.00696544 -2.48177e-05 0)
(0.0131107 -2.35322e-05 -5.7011e-26)
(0.00755873 -0.000233243 2.99193e-22)
(0.00699645 1.97787e-05 -7.81673e-24)
(0.0162825 3.35502e-05 1.18534e-25)
(0.013478 -0.000410328 5.80357e-26)
(0.0139799 0.000163897 0)
(0.00658861 -0.000928595 -5.65033e-22)
(0.00892313 0.000463792 -2.31317e-20)
(0.0184408 0.000119854 0)
(0.0163108 -0.000476759 5.80857e-26)
(0.017568 0.000369154 0)
(0.0125836 -0.00162345 -4.30352e-21)
(0.0170173 0.00104276 6.22608e-21)
(0.00366653 -0.001272 1.30432e-20)
(0.012354 0.00223412 2.44744e-23)
(0.0200166 0.000228075 -1.73158e-25)
(0.0181994 -0.000488908 -2.72588e-22)
(0.019848 0.000602767 0)
(0.0154772 -0.00185187 -1.14608e-21)
(0.0205959 0.00144188 -3.8319e-24)
(0.00880883 -0.00254763 1.54032e-21)
(0.0206228 0.00378567 6.36277e-24)
(0.000833219 -0.000655001 7.25211e-20)
(0.0141442 0.00501102 -7.69166e-20)
(0.0211995 0.000347791 0)
(0.0196027 -0.000461921 5.10204e-22)
(0.0213795 0.000834282 0)
(0.0173414 -0.0018932 7.42383e-22)
(0.0225111 0.00180394 0)
(0.0118624 -0.00311511 -5.60362e-21)
(0.0234705 0.00432699 3.40441e-24)
(0.0038249 -0.00180172 0)
(0.0214409 0.00772193 2.86341e-21)
(-0.000402934 8.97411e-05 -9.2162e-24)
(0.0124935 0.006846 0)
(0.0221073 0.00047229 0)
(0.0206915 -0.000406625 -5.65819e-22)
(0.0224463 0.00105216 -1.2752e-24)
(0.0187088 -0.00184516 6.36738e-22)
(0.0236182 0.00210999 1.28216e-21)
(0.0140381 -0.00332246 -2.38172e-24)
(0.0246941 0.00464176 0)
(0.00625619 -0.00262694 -4.15875e-24)
(0.0236495 0.00827304 2.62123e-21)
(0.000595961 -0.000301219 0)
(0.0187294 0.0105925 2.41925e-20)
(-0.000570125 0.000368573 3.03054e-23)
(0.00942637 0.00670789 0)
(0.0228192 0.00059798 5.11741e-25)
(0.0215566 -0.000330505 2.72198e-22)
(0.0232185 0.00125398 0)
(0.0197747 -0.00174889 -4.67873e-22)
(0.024302 0.00236631 -1.009e-21)
(0.0157372 -0.00332781 6.60743e-21)
(0.0252775 0.00483029 -4.84451e-24)
(0.00837438 -0.00316895 -1.97183e-20)
(0.0245457 0.00839191 2.2918e-20)
(0.00184952 -0.000887425 0)
(0.0208127 0.011341 -1.33454e-20)
(-0.000508905 0.000505386 -2.28986e-19)
(0.0148128 0.0109554 -1.70518e-19)
(-0.000589849 0.000485833 -3.69782e-19)
(0.00707421 0.00590494 5.30098e-19)
(0.0233907 0.000723105 0)
(0.0222569 -0.000239132 3.74985e-22)
(0.0237987 0.00143987 0)
(0.0206368 -0.00162173 0)
(0.0247526 0.00258472 0)
(0.0171178 -0.00321788 -5.41224e-21)
(0.0255776 0.00494494 0)
(0.0103143 -0.00349226 3.16901e-20)
(0.0249671 0.00834298 -1.46329e-21)
(0.00323093 -0.00144538 7.05571e-20)
(0.021811 0.0114424 8.49858e-21)
(-8.50906e-05 0.000292589 2.54589e-19)
(0.0168822 0.0120639 1.82061e-19)
(-0.000892721 0.000901737 -5.20392e-23)
(0.0116896 0.010165 -2.86101e-19)
(-0.000592009 0.000544689 4.04297e-19)
(0.00548593 0.00506624 3.78953e-23)
(0.0238601 0.000846775 0)
(0.0228347 -0.000136007 6.96627e-23)
(0.0242507 0.00161052 2.18816e-25)
(0.0213528 -0.00147341 -2.06553e-24)
(0.0250683 0.0027733 0)
(0.0182667 -0.00303787 0)
(0.0257396 0.0050152 -1.92587e-24)
(0.0120958 -0.0036507 -1.33881e-20)
(0.0251857 0.00821331 -4.91073e-21)
(0.00475439 -0.00194627 -5.62221e-20)
(0.0224081 0.0113136 -6.2075e-21)
(0.000533391 -1.19621e-05 -1.76881e-19)
(0.0180335 0.0124029 -5.79302e-20)
(-0.000821441 0.000907963 3.68739e-23)
(0.0136089 0.0115006 1.46985e-19)
(-0.00107422 0.00112816 -1.10183e-21)
(0.00945801 0.00907801 3.6828e-19)
(-0.000579245 0.000562592 -4.38139e-19)
(0.00443398 0.00435568 7.93543e-19)
(0.0242542 0.000968468 0)
(0.0233203 -2.44165e-05 -7.84437e-22)
(0.0246142 0.00176696 0)
(0.0219597 -0.00131098 1.5535e-24)
(0.0253009 0.00293545 -1.93596e-25)
(0.0192395 -0.00281476 -1.7584e-24)
(0.0258291 0.00505538 0)
(0.0137212 -0.00367865 7.76511e-24)
(0.0253054 0.00804206 -2.04839e-21)
(0.0063858 -0.00237905 0)
(0.0228241 0.0110761 3.67131e-25)
(0.00134987 -0.000365677 7.40356e-23)
(0.0188295 0.012448 -3.12167e-24)
(-0.000585771 0.000788707 -2.5008e-23)
(0.0147536 0.0120532 -9.48468e-20)
(-0.00116768 0.0012662 -5.77223e-22)
(0.0111766 0.010476 -1.97974e-19)
(-0.00115749 0.00123733 0)
(0.00789224 0.0080215 0)
(-0.000569344 0.000561878 4.84203e-22)
(0.00370549 0.00376014 -8.85369e-19)
(0.024592 0.00108775 0)
(0.0237365 9.36705e-05 3.84581e-22)
(0.0249148 0.00190999 0)
(0.0224838 -0.00113944 -1.99912e-21)
(0.0254807 0.00307503 0)
(0.0200749 -0.00256691 -6.48565e-21)
(0.0258795 0.00507353 0)
(0.0151935 -0.00360172 1.14959e-20)
(0.0253723 0.00784854 9.18822e-22)
(0.00808137 -0.00273027 -5.50711e-24)
(0.0231431 0.010779 4.3122e-21)
(0.00236937 -0.000754127 5.9399e-24)
(0.0194584 0.0123435 -2.92643e-20)
(-0.00021582 0.000605189 0)
(0.0155938 0.0122933 3.29903e-24)
(-0.00110212 0.00125471 -1.08818e-19)
(0.0122315 0.011139 3.24156e-23)
(-0.00134295 0.00145858 0)
(0.00941794 0.00938413 0)
(-0.00120594 0.00128094 3.7504e-19)
(0.00676699 0.00705737 0)
(-0.000568444 0.000557597 -3.83091e-22)
(0.00321383 0.00328081 -9.6195e-19)
(0.0248868 0.00120407 0)
(0.0241001 0.000216244 0)
(0.0251695 0.0020401 0)
(0.0229445 -0.000962391 -3.32586e-22)
(0.0256256 0.00319344 0)
(0.0208018 -0.0023073 1.22515e-20)
(0.0259088 0.00507385 7.68718e-23)
(0.0165163 -0.00344313 -1.0144e-20)
(0.02541 0.00764332 6.91046e-22)
(0.00979643 -0.00298732 0)
(0.0234025 0.0104474 -3.73361e-21)
(0.00358651 -0.00116006 1.0786e-19)
(0.0199954 0.0121477 2.41706e-20)
(0.000300898 0.000367897 1.70607e-23)
(0.0162943 0.0123687 -9.32385e-24)
(-0.00093789 0.00117493 8.40196e-20)
(0.0130301 0.0115036 8.68115e-20)
(-0.00136649 0.00151517 0)
(0.0103672 0.0100782 4.15832e-23)
(-0.00144759 0.00155316 1.00847e-22)
(0.00813011 0.00833904 0)
(-0.00124887 0.00129901 -4.06006e-19)
(0.00598031 0.00623021 -5.44099e-19)
(-0.000574835 0.000557745 -5.32468e-19)
(0.00290183 0.00292209 -5.05654e-22)
(0.0251486 0.00131678 1.71398e-24)
(0.0244236 0.000341781 0)
(0.0253898 0.00215757 0)
(0.0233561 -0.000782686 1.96282e-21)
(0.025747 0.00329231 -9.43467e-25)
(0.0214426 -0.00204473 6.12125e-22)
(0.0259278 0.00505825 -7.09486e-23)
(0.0176978 -0.00322469 0)
(0.0254317 0.00743234 6.43479e-23)
(0.0114878 -0.00314324 -4.57082e-24)
(0.0236215 0.0100952 3.71194e-21)
(0.00498384 -0.00156067 1.06069e-22)
(0.0204744 0.0118895 1.55666e-24)
(0.000986549 8.00357e-05 -6.07294e-20)
(0.0169213 0.0123391 3.84611e-20)
(-0.00068041 0.00104516 -1.43297e-19)
(0.0137119 0.0117087 -6.74333e-20)
(-0.0013052 0.00150061 9.10617e-20)
(0.0110948 0.0104993 1.05384e-19)
(-0.00152266 0.00165311 -1.3146e-19)
(0.00898203 0.0090214 -1.68172e-19)
(-0.00152892 0.00160303 2.2131e-19)
(0.00720998 0.00740902 2.89279e-19)
(-0.00129305 0.00131697 0)
(0.00544459 0.00557011 5.71945e-22)
(-0.000583644 0.00056058 -5.58944e-19)
(0.00268011 0.00265096 1.08212e-18)
(0.0253846 0.00142504 0)
(0.0247166 0.000468896 -1.81984e-24)
(0.0255839 0.00226264 0)
(0.0237298 -0.000602553 0)
(0.0258524 0.00337238 2.17842e-22)
(0.0220139 -0.00178523 -5.86568e-21)
(0.0259431 0.00502832 8.58094e-25)
(0.0187483 -0.0029661 0)
(0.0254462 0.00721818 1.48022e-21)
(0.0131189 -0.00319893 -1.536e-20)
(0.0238111 0.00973119 -3.37969e-21)
(0.0065313 -0.00193066 -4.45207e-20)
(0.0209113 0.0115855 -1.62075e-24)
(0.00186183 -0.000252007 5.59913e-20)
(0.0175063 0.0122335 -3.28369e-20)
(-0.000316454 0.000868856 6.45377e-20)
(0.0143373 0.0118125 0)
(-0.0011763 0.00143957 -7.60906e-20)
(0.0117233 0.0107761 -8.20386e-20)
(-0.00151784 0.00168027 7.92141e-23)
(0.009639 0.00945966 1.39279e-21)
(-0.00163659 0.00173106 -1.42875e-19)
(0.0079765 0.00805478 -1.84006e-19)
(-0.00160306 0.00164396 2.29803e-22)
(0.00656485 0.00663851 -3.05137e-19)
(-0.00133627 0.00133682 8.82988e-22)
(0.00503533 0.00504579 -5.86697e-22)
(-0.000598488 0.000570014 1.16656e-18)
(0.0024845 0.00241907 -1.0948e-21)
(0.0256005 0.00152792 0)
(0.0249857 0.000595911 2.8652e-22)
(0.0257579 0.00235527 0)
(0.0240736 -0.00042387 -2.48843e-21)
(0.0259472 0.0034346 -2.04244e-22)
(0.0225298 -0.00153222 -6.40175e-21)
(0.025959 0.00498539 0)
(0.0196811 -0.00268418 0)
(0.0254589 0.00700289 -1.39082e-21)
(0.014659 -0.00316178 -2.06545e-22)
(0.0239778 0.00936194 0)
(0.00818808 -0.00224593 -4.56408e-24)
(0.0213152 0.0112462 -3.01328e-24)
(0.00293965 -0.000616169 0)
(0.0180631 0.0120677 2.68336e-20)
(0.000177126 0.000645525 3.17265e-23)
(0.0149349 0.0118422 2.80319e-23)
(-0.000977308 0.00133855 -6.75658e-20)
(0.0123065 0.0109619 0)
(-0.00145712 0.00166327 8.13096e-20)
(0.010209 0.00976941 9.41635e-20)
(-0.00166522 0.00178535 0)
(0.00856731 0.0084836 1.33911e-19)
(-0.00173424 0.00179167 1.52744e-19)
(0.00725794 0.00723133 1.10396e-21)
(-0.00167199 0.00168339 2.52491e-19)
(0.00606361 0.00600962 -3.17737e-19)
(-0.00138619 0.00136838 -8.15184e-22)
(0.0046707 0.00459492 0)
(-0.000622828 0.000588902 -6.04408e-19)
(0.00230727 0.00221495 -1.17259e-18)
(0.0258006 0.00162438 0)
(0.0252365 0.000721519 -2.6795e-22)
(0.0259166 0.00243532 0)
(0.024394 -0.000248175 -2.56843e-22)
(0.0260351 0.00347949 -1.76819e-22)
(0.0230007 -0.00128803 5.92612e-21)
(0.0259786 0.00492975 1.31311e-21)
(0.0205095 -0.00239263 0)
(0.0254739 0.00678766 -3.17988e-24)
(0.0160854 -0.0030446 2.59066e-20)
(0.0241278 0.00899109 3.72339e-21)
(0.00990642 -0.00248677 1.40037e-23)
(0.0216911 0.010879 2.0928e-24)
(0.00422052 -0.000994449 2.46564e-23)
(0.0185999 0.0118509 -2.41723e-20)
(0.000828015 0.000375112 0)
(0.0155197 0.0118121 1.98406e-23)
(-0.000695501 0.00119792 6.27055e-20)
(0.0128711 0.0110821 -2.46797e-23)
(-0.00134456 0.00161117 7.12088e-20)
(0.0107399 0.00999922 -7.51399e-20)
(-0.00164311 0.00179694 -8.66795e-20)
(0.00907964 0.00879915 1.03016e-19)
(-0.0017853 0.00186452 -1.13154e-19)
(0.00778983 0.00763176 2.84818e-19)
(-0.00182215 0.00184708 1.61988e-19)
(0.00669614 0.0065455 2.04536e-19)
(-0.00174479 0.00173409 -5.31138e-19)
(0.00561988 0.00546697 3.27754e-19)
(-0.00144955 0.00141718 9.94172e-19)
(0.0043358 0.0041966 0)
(-0.000655389 0.000616166 6.23952e-19)
(0.00213315 0.00202595 0)
(0.0259885 0.00171331 0)
(0.025473 0.000844079 0)
(0.0260638 0.00250266 -3.64112e-24)
(0.0246958 -7.68658e-05 5.15147e-21)
(0.0261193 0.00350765 3.77616e-22)
(0.0234352 -0.00105382 0)
(0.0260038 0.0048626 -1.26733e-21)
(0.0212483 -0.00210136 0)
(0.0254938 0.00657334 0)
(0.0173868 -0.002864 -2.40503e-20)
(0.0242646 0.00862273 -3.55142e-21)
(0.0116361 -0.00264042 -3.51193e-20)
(0.0220403 0.0104909 1.9117e-24)
(0.00568972 -0.00136405 -1.06131e-23)
(0.0191188 0.0115897 -8.04638e-24)
(0.00166312 6.11063e-05 -2.56046e-23)
(0.0160988 0.0117294 3.19104e-20)
(-0.000310742 0.00101564 -5.96726e-20)
(0.0134316 0.0111495 4.58583e-20)
(-0.00117494 0.00152603 -6.54443e-20)
(0.0112568 0.0101726 1.26924e-19)
(-0.00157819 0.0017766 7.54863e-20)
(0.00955717 0.00904553 -9.81501e-22)
(-0.00178767 0.00189531 0)
(0.00824978 0.00793296 -2.22512e-19)
(-0.00189002 0.00193422 -1.19704e-19)
(0.00718045 0.00690994 1.48066e-19)
(-0.00191004 0.00191191 9.23433e-23)
(0.00620308 0.00595153 -4.20744e-19)
(-0.00182984 0.00180216 -2.77091e-19)
(0.00521288 0.00498609 3.3616e-19)
(-0.00152364 0.0014805 -5.10747e-19)
(0.00400901 0.00383074 6.65667e-19)
(-0.000691786 0.000646271 0)
(0.0019546 0.00184189 -1.25438e-18)
(0.0261672 0.00179365 4.81069e-24)
(0.0256982 0.000962119 -3.18623e-22)
(0.0262028 0.00255724 4.05527e-24)
(0.0249827 8.88224e-05 -2.57624e-21)
(0.0262021 0.00351985 -1.97456e-22)
(0.0238396 -0.000830404 -6.4197e-21)
(0.0260362 0.00478414 -1.82863e-21)
(0.0219107 -0.00181759 0)
(0.025521 0.00635974 0)
(0.0185594 -0.00263794 -1.76271e-22)
(0.0243916 0.0082594 0)
(0.0133284 -0.00270228 6.48572e-20)
(0.0223664 0.010087 5.87117e-21)
(0.00731682 -0.00169999 0)
(0.0196212 0.0112889 -1.92855e-24)
(0.00270325 -0.000287446 -5.17094e-20)
(0.0166761 0.0115984 -9.66709e-22)
(0.000203273 0.000789206 1.15184e-19)
(0.0139965 0.0111704 -8.11547e-20)
(-0.000936538 0.00140658 -6.16482e-20)
(0.0117739 0.0103015 -9.37453e-22)
(-0.00146966 0.00172777 6.83236e-20)
(0.0100228 0.00924377 -9.34929e-22)
(-0.00175179 0.0018961 7.91857e-20)
(0.00867774 0.00817449 9.1526e-20)
(-0.00190964 0.00197911 1.90264e-22)
(0.00759852 0.00718686 -2.32829e-19)
(-0.00198989 0.00201072 3.13502e-22)
(0.00664999 0.00628186 1.537e-19)
(-0.00200762 0.00199252 -1.78465e-19)
(0.00575245 0.00542406 -6.99032e-22)
(-0.00192443 0.00188405 0)
(0.00481963 0.00454602 -3.44688e-19)
(-0.00160098 0.0015456 -5.2265e-19)
(0.00368063 0.00348157 6.73563e-22)
(-0.000731467 0.000672427 -6.62869e-19)
(0.00176132 0.00165034 2.52371e-21)
(0.0263392 0.00186435 0)
(0.0259146 0.00107416 3.12212e-22)
(0.0263362 0.00259891 4.45733e-24)
(0.0252575 0.000247651 -1.05291e-23)
(0.0262857 0.00351677 4.45331e-24)
(0.0242191 -0.000618052 6.06467e-21)
(0.0260769 0.00469522 1.78492e-21)
(0.022509 -0.00154573 0)
(0.025557 0.00614703 6.61781e-24)
(0.0196058 -0.00238365 1.0398e-20)
(0.0245122 0.00790321 0)
(0.0149403 -0.00267613 -1.49027e-20)
(0.0226702 0.00967272 -5.63854e-21)
(0.00905738 -0.00197852 0)
(0.0201057 0.0109534 -1.70675e-20)
(0.00395808 -0.000655191 4.90402e-20)
(0.0172512 0.0114218 -2.6135e-20)
(0.000876841 0.000517748 6.95554e-23)
(0.0145705 0.0111479 3.64544e-20)
(-0.000611598 0.00124988 5.95587e-20)
(0.0123001 0.0103917 -9.56117e-20)
(-0.00131125 0.00165037 -6.40512e-20)
(0.0104903 0.00940518 -6.20983e-20)
(-0.0016795 0.00187137 -7.15153e-20)
(0.00909479 0.00837553 0)
(-0.00189332 0.00199485 0)
(0.00798679 0.00741189 9.65026e-20)
(-0.00202084 0.00206637 1.01132e-19)
(0.00703623 0.00653427 2.37143e-22)
(-0.00209603 0.00210074 1.3148e-19)
(0.00616779 0.00572321 -1.57343e-19)
(-0.00211332 0.00208519 -1.85005e-19)
(0.00532088 0.00494229 -2.19956e-19)
(-0.00202041 0.00196475 2.92997e-19)
(0.00442946 0.00412963 6.8883e-22)
(-0.00168062 0.00159592 1.23027e-23)
(0.00333958 0.00312725 -1.36723e-21)
(-0.000777237 0.000692989 0)
(0.00156829 0.0014513 -1.30298e-21)
(0.0265069 0.00192455 0)
(0.026124 0.00117861 0)
(0.0264667 0.00262769 4.85038e-24)
(0.0255223 0.000398455 0)
(0.026372 0.00349907 -4.22459e-24)
(0.0245778 -0.000417014 1.29247e-23)
(0.0261268 0.00459658 -7.90155e-24)
(0.0230543 -0.00128799 1.36975e-23)
(0.0256031 0.00593506 4.34938e-21)
(0.0205356 -0.00211614 0)
(0.0246294 0.00755535 -9.94657e-24)
(0.0164398 -0.00257318 8.70171e-23)
(0.0229536 0.00925294 -3.21812e-24)
(0.0108567 -0.0021807 3.78032e-23)
(0.0205713 0.0105877 2.4208e-20)
(0.00542149 -0.00102104 -4.67087e-20)
(0.0178234 0.0112015 1.00695e-23)
(0.00173963 0.000204496 -5.38397e-20)
(0.0151553 0.0110831 3.18618e-20)
(-0.000176428 0.00105249 5.84795e-20)
(0.0128411 0.0104459 4.30386e-20)
(-0.00109195 0.00154224 0)
(0.0109688 0.00953557 5.37762e-20)
(-0.00156786 0.00182205 -6.62706e-20)
(0.0095142 0.00854669 -6.67383e-20)
(-0.00184478 0.0019868 1.43642e-22)
(0.00836491 0.00760283 -1.61345e-22)
(-0.00201688 0.00209293 -8.66326e-20)
(0.00739501 0.0067408 -1.93042e-22)
(-0.00213405 0.00216443 -1.05528e-19)
(0.00652801 0.00595244 -2.40784e-22)
(-0.00220867 0.00220078 1.36045e-19)
(0.00570955 0.00521334 3.21512e-19)
(-0.00221969 0.00217473 0)
(0.00489667 0.00448876 -2.24362e-19)
(-0.00211629 0.00202393 5.79708e-22)
(0.00403155 0.00371486 -7.00258e-22)
(-0.00176552 0.00162519 -1.04234e-21)
(0.00300679 0.00276349 0)
(-0.000826969 0.000703701 1.38999e-21)
(0.00139491 0.0012579 0)
(0.0266724 0.00197354 0)
(0.0263283 0.00127422 -1.16226e-23)
(0.0265966 0.00264368 -5.23376e-24)
(0.0257786 0.000540162 0)
(0.0264626 0.00346786 -4.62212e-24)
(0.0249189 -0.000227568 6.56399e-21)
(0.0261866 0.00448886 2.50739e-21)
(0.0235555 -0.00104528 -1.35415e-23)
(0.02566 0.00572396 -4.29616e-21)
(0.0213617 -0.00184714 0)
(0.0247458 0.00721681 0)
(0.0178063 -0.00240968 -1.2916e-20)
(0.0232184 0.0088322 5.54852e-21)
(0.0126562 -0.00229544 0)
(0.0210163 0.0101969 -1.51254e-20)
(0.00706896 -0.00136034 4.37731e-20)
(0.01839 0.0109399 9.2659e-24)
(0.00281576 -0.000141548 -5.19835e-20)
(0.0157507 0.0109758 -9.7577e-22)
(0.000398275 0.000811688 -5.74284e-20)
(0.0134001 0.0104646 -7.08334e-23)
(-0.000795611 0.00139999 1.21244e-22)
(0.0114643 0.00963717 -9.71923e-20)
(-0.00141004 0.00174692 6.31649e-20)
(0.0099446 0.00869326 6.4347e-22)
(-0.00176317 0.00195669 -2.69894e-22)
(0.00874489 0.00776913 -1.37671e-22)
(-0.00198316 0.00209651 7.67054e-20)
(0.00774429 0.00691773 1.65048e-22)
(-0.00213718 0.00219863 8.96089e-20)
(0.00686369 0.0061411 0)
(-0.00225169 0.00227022 0)
(0.00604887 0.00542183 -1.27368e-19)
(-0.0023218 0.00229621 -2.75481e-22)
(0.00526284 0.00473527 1.64538e-19)
(-0.00232505 0.00223958 -1.94076e-19)
(0.0044693 0.00404274 0)
(-0.00221404 0.00205217 5.91901e-22)
(0.00364651 0.00329458 -3.6861e-19)
(-0.00185167 0.00162434 -5.39633e-19)
(0.00270725 0.00240816 0)
(-0.000877443 0.000698657 -7.338e-19)
(0.00124062 0.00107398 2.86569e-18)
(0.0268374 0.00201082 -1.20245e-23)
(0.0265288 0.00135973 -1.21166e-23)
(0.0267279 0.0026471 0)
(0.0260279 0.000671743 1.18702e-23)
(0.026559 0.00342394 5.01314e-24)
(0.0252449 -5.00758e-05 -6.2939e-21)
(0.026257 0.00437306 -2.4776e-21)
(0.0240199 -0.000817835 -7.23893e-21)
(0.0257286 0.00551329 -1.81644e-23)
(0.0220984 -0.00158475 0)
(0.0248638 0.00688801 8.77492e-24)
(0.0190318 -0.00220397 -1.23907e-23)
(0.0234674 0.00841419 -5.43166e-21)
(0.0143992 -0.00232098 0)
(0.0214398 0.00978644 7.26698e-21)
(0.0088574 -0.00164821 -8.25606e-23)
(0.0189477 0.0106394 0)
(0.00411793 -0.000504885 4.95434e-20)
(0.0163547 0.0108259 -2.72936e-20)
(0.00114501 0.000527476 -5.609e-20)
(0.0139785 0.0104469 3.46245e-20)
(-0.000400513 0.00121972 -5.91782e-20)
(0.0119812 0.00971073 8.73815e-22)
(-0.00119525 0.00164333 6.10124e-20)
(0.0103925 0.00881803 5.40661e-20)
(-0.00164434 0.00190415 2.55451e-22)
(0.00913499 0.0079161 1.22525e-22)
(-0.00192041 0.00207951 2.74036e-22)
(0.00809501 0.00707379 -2.94736e-22)
(-0.00211179 0.00221015 6.21226e-22)
(0.00719085 0.0063036 3.46714e-22)
(-0.00225915 0.00230954 3.59776e-22)
(0.00636628 0.00559401 -4.14299e-22)
(-0.0023697 0.0023701 0)
(0.00558516 0.00492571 -2.54777e-22)
(-0.00243388 0.00236542 1.43728e-19)
(0.00481711 0.00426963 0)
(-0.00243059 0.0022684 -3.86034e-22)
(0.00405748 0.00359533 2.35634e-19)
(-0.00230982 0.00203954 3.00826e-19)
(0.00329884 0.00288328 7.39566e-22)
(-0.00193479 0.00158349 -5.62766e-22)
(0.00244068 0.00206753 -7.64375e-19)
(-0.000927491 0.000673595 7.5934e-19)
(0.00110514 0.000900632 -2.90231e-21)
(0.0270037 0.00203613 1.26355e-23)
(0.0267271 0.00143416 1.24213e-23)
(0.0268624 0.00263835 1.19567e-23)
(0.0262714 0.00079226 -3.27826e-21)
(0.0266626 0.00336833 0)
(0.0255581 0.000115208 0)
(0.0263385 0.00425011 0)
(0.0244535 -0.000605399 6.87754e-21)
(0.0258092 0.00530329 1.97082e-23)
(0.0227599 -0.00133394 -1.58404e-23)
(0.0249854 0.00656916 0)
(0.0201191 -0.00197371 0)
(0.0237029 0.00800226 -3.06479e-24)
(0.0160385 -0.00226496 -1.50626e-20)
(0.0218411 0.00936164 7.64971e-24)
(0.0107287 -0.00186374 -1.94675e-20)
(0.0194928 0.0103035 0)
(0.00564182 -0.000864154 9.04705e-23)
(0.0169646 0.0106333 -2.44341e-20)
(0.00209468 0.000204782 5.44275e-20)
(0.0145764 0.0103914 -9.60383e-22)
(0.000120855 0.000998012 -2.90824e-22)
(0.0125222 0.00975534 1.03067e-21)
(-0.000908183 0.00150765 -6.03209e-20)
(0.0108625 0.00892152 0)
(-0.00148097 0.00182737 -6.23323e-20)
(0.00954157 0.00804656 5.70835e-20)
(-0.00182634 0.00204226 -2.57876e-22)
(0.00845493 0.00721416 -6.66845e-20)
(-0.00205984 0.00220198 0)
(0.0075195 0.00644811 6.06395e-22)
(-0.00223842 0.00232619 -3.17632e-22)
(0.00667651 0.00574315 -3.52962e-22)
(-0.0023811 0.00241324 9.54742e-20)
(0.00588852 0.00508388 4.211e-22)
(-0.00248698 0.00244302 0)
(0.00512641 0.00444633 -1.32722e-19)
(-0.00254557 0.00239583 5.71877e-22)
(0.00438845 0.0038063 6.74586e-22)
(-0.00253306 0.00225096 3.83417e-22)
(0.00368437 0.00315734 -4.72152e-22)
(-0.00240011 0.00197662 3.01684e-19)
(0.00299018 0.0024882 -1.38139e-24)
(-0.00201499 0.00149758 5.5102e-22)
(0.00220815 0.00174501 -3.07377e-21)
(-0.000980776 0.000629622 3.93211e-19)
(0.000989965 0.000740223 5.8786e-23)
(0.027173 0.00204947 1.32511e-23)
(0.0269243 0.00149682 -4.42443e-22)
(0.027002 0.00261791 -1.26803e-23)
(0.02651 0.000900916 3.20778e-21)
(0.0267745 0.00330219 3.55605e-22)
(0.0258599 0.000267787 0)
(0.0264318 0.00412072 0)
(0.0248611 -0.000407764 -2.8172e-23)
(0.0259022 0.00509403 -5.85184e-21)
(0.0233589 -0.00109728 -8.23249e-21)
(0.0251129 0.00625982 0)
(0.0210786 -0.00173381 0)
(0.023928 0.0075991 5.80604e-21)
(0.0175403 -0.00214219 2.81365e-20)
(0.0222207 0.00892792 3.00552e-24)
(0.0126156 -0.00199362 -1.42643e-22)
(0.0200219 0.00993648 -7.75106e-24)
(0.00736204 -0.00119427 1.7701e-22)
(0.0175764 0.0103986 1.20669e-20)
(0.00327131 -0.000145207 0)
(0.015192 0.0102963 -8.61876e-22)
(0.000800998 0.000733323 -1.15207e-22)
(0.0130887 0.00976909 9.31505e-22)
(-0.000528278 0.00133576 2.31849e-22)
(0.0113583 0.00900321 4.45601e-20)
(-0.00126219 0.00172341 6.15629e-20)
(0.00996947 0.00816143 -5.32818e-20)
(-0.00169601 0.00198365 -2.47431e-22)
(0.00882986 0.00734159 6.13145e-20)
(-0.00198046 0.00217499 0)
(0.00785675 0.0065795 -6.91812e-20)
(-0.0021924 0.00232369 -2.92427e-22)
(0.00698873 0.00587668 -3.11373e-22)
(-0.00236405 0.0024336 -8.37792e-20)
(0.00618613 0.00522161 0)
(-0.00250267 0.00248962 -3.77892e-22)
(0.00541944 0.00459415 1.11306e-19)
(-0.0026039 0.00247561 0)
(0.00468573 0.00397273 0)
(-0.00265424 0.00237703 -5.69955e-22)
(0.0039987 0.00335283 -1.788e-19)
(-0.00262965 0.00217861 -1.97325e-19)
(0.00335335 0.00273596 2.48859e-19)
(-0.00248634 0.00185959 -2.99832e-19)
(0.00272225 0.00211353 -7.81119e-22)
(-0.00209736 0.00137149 0)
(0.00201305 0.00144579 8.10314e-19)
(-0.00103597 0.000569401 0)
(0.000901098 0.000598372 7.96943e-19)
(0.0273465 0.00205108 -1.38689e-23)
(0.0271217 0.00154721 4.09051e-22)
(0.027148 0.00258644 -1.3395e-23)
(0.0267449 0.000997024 2.69142e-23)
(0.026896 0.00322651 -3.76619e-22)
(0.0261519 0.000407257 2.68764e-23)
(0.0265374 0.00398596 2.40783e-23)
(0.0252463 -0.000224757 0)
(0.026008 0.00488565 5.82416e-21)
(0.0239063 -0.000875716 7.81934e-21)
(0.0252476 0.00595992 -4.52652e-23)
(0.0219258 -0.00149523 -2.01727e-23)
(0.0241458 0.00720664 2.0861e-22)
(0.0188871 -0.00197134 -2.61366e-20)
(0.0225793 0.00849069 0)
(0.0144513 -0.00203479 1.6821e-20)
(0.0205319 0.00954335 0)
(0.00923124 -0.0014702 2.12542e-20)
(0.0181852 0.0101234 3.28604e-22)
(0.00468541 -0.000504773 -3.90859e-22)
(0.0158223 0.01016 -2.80893e-20)
(0.00167358 0.000428226 5.64968e-20)
(0.0136807 0.00974957 3.49403e-20)
(-2.92563e-05 0.00112387 0)
(0.0118823 0.00906143 -4.20214e-20)
(-0.000972891 0.00158852 0)
(0.0104227 0.00826051 6.5925e-24)
(-0.0015216 0.00190148 -2.41142e-22)
(0.00922451 0.0074574 2.15282e-22)
(-0.00187046 0.00212866 0)
(0.00820784 0.00670037 6.39765e-20)
(-0.0021213 0.00230339 -6.93637e-20)
(0.00730919 0.00599891 3.23778e-24)
(-0.00232211 0.00243514 5.93472e-22)
(0.00648626 0.00534562 8.20398e-20)
(-0.00248942 0.0025135 -3.35955e-22)
(0.00570811 0.00472374 -9.58039e-20)
(-0.00262418 0.0025249 9.89663e-20)
(0.00496933 0.00411348 0)
(-0.00271836 0.00245735 0)
(0.00428361 0.00350949 1.41619e-19)
(-0.00275741 0.00230091 1.47959e-19)
(0.00365273 0.00291594 -1.83235e-19)
(-0.00272213 0.00204817 -1.96737e-19)
(0.00306674 0.00233575 0)
(-0.00257459 0.00169492 5.75854e-22)
(0.00249884 0.0017647 0)
(-0.00217873 0.00121378 0)
(0.00186169 0.00117824 -4.14665e-19)
(-0.00108445 0.000490165 -4.1608e-19)
(0.000834446 0.000475505 3.09551e-23)
(0.0275256 0.00204145 0)
(0.0273205 0.0015852 -4.50027e-22)
(0.0273018 0.00254472 0)
(0.026977 0.00108012 3.61001e-21)
(0.0270279 0.00314239 -1.44212e-23)
(0.0264355 0.000533251 -7.08407e-21)
(0.0266556 0.0038468 0)
(0.0256125 -5.62665e-05 8.17607e-25)
(0.0261269 0.00467864 -2.61235e-23)
(0.0244111 -0.000669342 7.80986e-21)
(0.0253909 0.00566906 -6.1839e-21)
(0.022678 -0.00126497 0)
(0.0243592 0.0068263 -1.21107e-20)
(0.0200773 -0.00177151 1.21386e-20)
(0.0229189 0.00805465 1.43003e-23)
(0.0161785 -0.00199454 1.57937e-20)
(0.0210205 0.00912977 -3.45519e-23)
(0.0111837 -0.00167147 -3.9401e-20)
(0.0187859 0.00981012 1.0417e-20)
(0.00632754 -0.000850745 -1.83161e-22)
(0.0164636 0.00998164 0)
(0.00276851 9.11372e-05 2.11618e-22)
(0.014297 0.0096942 1.3033e-22)
(0.00062059 0.000869792 -4.67471e-22)
(0.0124358 0.0090936 3.83975e-20)
(-0.000592934 0.00141853 4.77899e-22)
(0.0109042 0.0083425 1.79814e-22)
(-0.00129193 0.00179265 0)
(0.00964292 0.00756171 -1.99351e-22)
(-0.00172429 0.00206141 4.95364e-22)
(0.00857736 0.00681237 0)
(-0.00202326 0.00226526 6.5929e-20)
(0.00764284 0.00611257 6.539e-20)
(-0.00225626 0.0024196 5.53931e-22)
(0.00679457 0.00545988 -7.52147e-20)
(-0.0024512 0.00251886 -6.04895e-22)
(0.00599981 0.00484106 8.55919e-20)
(-0.00261508 0.00255195 -8.67619e-20)
(0.00525002 0.00423799 3.88028e-22)
(-0.00274408 0.00250845 -3.93761e-22)
(0.00455723 0.00364384 0)
(-0.00282816 0.0023805 0)
(0.00392615 0.00306256 5.70562e-22)
(-0.0028568 0.00216458 1.47609e-19)
(0.00335339 0.00250031 1.4755e-21)
(-0.00281637 0.00186601 9.78311e-20)
(0.00282846 0.00196203 0)
(-0.00266185 0.00149325 0)
(0.0023262 0.00144974 0)
(-0.00224991 0.00102467 0)
(0.00174855 0.0009439 -4.23643e-19)
(-0.00112527 0.000392273 8.48542e-19)
(0.00077983 0.000365871 0)
(0.0277111 0.00202129 1.51237e-23)
(0.0275218 0.00161086 4.29854e-22)
(0.0274645 0.00249371 0)
(0.0272072 0.00114997 -3.49276e-21)
(0.0271712 0.00305097 0)
(0.0267118 0.000645451 6.9158e-21)
(0.0267871 0.00370405 5.60889e-23)
(0.0259622 9.76188e-05 -2.72345e-23)
(0.0262592 0.00447337 -6.93898e-21)
(0.0248802 -0.000478024 1.92405e-22)
(0.025544 0.00538694 6.23628e-21)
(0.0233518 -0.00104678 -2.64647e-23)
(0.0245712 0.00645896 6.16566e-21)
(0.0211203 -0.00155904 4.56538e-23)
(0.023242 0.00762411 0)
(0.0177556 -0.00188823 -1.44724e-20)
(0.0214867 0.00870168 -4.78068e-23)
(0.013144 -0.00178643 -7.19688e-23)
(0.0193742 0.00946269 3.53488e-23)
(0.00816394 -0.0011574 2.24856e-20)
(0.0171106 0.00976103 1.00773e-22)
(0.00410549 -0.000262865 0)
(0.014935 0.00960035 -1.22469e-22)
(0.00145581 0.00057487 -4.58007e-22)
(0.0130193 0.00909687 -3.68668e-20)
(-9.64793e-05 0.00120954 4.7081e-22)
(0.0114166 0.00840538 4.20494e-20)
(-0.000991664 0.00165335 -4.74043e-22)
(0.0100885 0.00765386 1.9632e-22)
(-0.00153361 0.00197075 -6.19195e-20)
(0.00896904 0.0069158 -5.37078e-20)
(-0.00189443 0.00220822 -4.94154e-22)
(0.00799368 0.00621907 -1.2121e-19)
(-0.00216561 0.00238734 5.2404e-22)
(0.00711549 0.00556691 0)
(-0.00238947 0.00250771 -1.12001e-21)
(0.00629973 0.00494974 -3.03201e-22)
(-0.00258075 0.00256105 3.05943e-22)
(0.00553457 0.00435157 -8.75398e-20)
(-0.00274006 0.00253832 0)
(0.00482936 0.00376418 -1.03071e-19)
(-0.00286032 0.00243287 -1.00749e-19)
(0.00419013 0.00319023 1.22199e-19)
(-0.00293461 0.00224233 0)
(0.00361681 0.00263669 -5.918e-22)
(-0.00295767 0.00197388 -7.43307e-20)
(0.00310478 0.00211115 -7.64387e-22)
(-0.00291015 0.00164343 -9.70366e-20)
(0.00264461 0.00162215 1.05567e-21)
(-0.00274076 0.00125741 0)
(0.00219888 0.0011708 2.1683e-19)
(-0.00231322 0.00080789 -5.23578e-19)
(0.00166256 0.000735187 -1.67936e-21)
(-0.00116047 0.000279332 0)
(0.000739081 0.000267138 0)
(0.0279038 0.00199148 0)
(0.0277266 0.00162459 1.51331e-23)
(0.0276366 0.00243442 1.54997e-23)
(0.0274368 0.00120653 2.93744e-23)
(0.0273262 0.00295356 3.03702e-23)
(0.0269822 0.000743624 -5.63498e-23)
(0.026932 0.0035588 0)
(0.0262976 0.000236797 7.22008e-21)
(0.0264051 0.00427025 -3.66627e-22)
(0.0253193 -0.000301656 -1.48954e-20)
(0.0257077 0.00511341 0)
(0.0239612 -0.000842316 -1.71795e-23)
(0.0247844 0.00610497 -6.63965e-21)
(0.022034 -0.00134598 2.00449e-23)
(0.0235517 0.0072025 6.33771e-24)
(0.0191615 -0.0017355 5.72244e-23)
(0.0219303 0.00826524 0)
(0.0150364 -0.0018144 1.69569e-20)
(0.0199457 0.00908597 3.41281e-23)
(0.0101364 -0.00140084 -2.09541e-20)
(0.0177579 0.00949922 0)
(0.00568654 -0.00061251 0)
(0.0155909 0.009466 -3.36713e-22)
(0.00250893 0.000245982 0)
(0.0136317 0.00906807 1.70142e-20)
(0.000547761 0.000959136 4.68266e-22)
(0.0119611 0.00844626 -2.01665e-20)
(-0.000600476 0.00147947 0)
(0.0105642 0.00773221 0)
(-0.00128675 0.00185343 6.14737e-20)
(0.00938627 0.00701043 5.08383e-20)
(-0.00172868 0.00213034 0)
(0.00836525 0.00631913 5.69666e-20)
(-0.00204756 0.00233774 5.03666e-22)
(0.00745271 0.00566809 6.18507e-20)
(-0.00230397 0.00248074 -5.25361e-22)
(0.00661188 0.00505209 0)
(-0.00252289 0.00255434 1.13707e-21)
(0.00582762 0.00445741 8.0456e-20)
(-0.00271048 0.00255113 -7.98018e-20)
(0.00510608 0.00387499 9.12807e-20)
(-0.00286249 0.00246542 1.31197e-22)
(0.00445362 0.00330604 -1.07381e-19)
(-0.00297372 0.00229538 0)
(0.0038721 0.00275725 4.9858e-22)
(-0.00304225 0.00204795 0)
(0.00335975 0.00223688 7.78199e-20)
(-0.00305844 0.00174025 1.46871e-19)
(0.00291282 0.00175506 0)
(-0.00299779 0.00138531 9.69126e-20)
(0.00251047 0.00131846 -2.79481e-19)
(-0.00281609 0.000992855 1.42722e-19)
(0.00210683 0.000921105 -1.72302e-21)
(-0.00237762 0.000572123 0)
(0.00160765 0.000547398 1.72237e-21)
(-0.00119581 0.000153294 -3.34943e-21)
(0.000723004 0.000179503 0)
(0.0281041 0.00195307 3.28304e-23)
(0.0279355 0.00162706 -4.86535e-22)
(0.0278188 0.00236796 0)
(0.0276665 0.00125009 -3.03729e-23)
(0.0274934 0.00285121 -4.70806e-23)
(0.0272477 0.000827788 7.4931e-21)
(0.0270906 0.00341209 3.3349e-23)
(0.0266206 0.000361223 2.96425e-22)
(0.0265648 0.00406997 -3.26036e-22)
(0.025733 -0.000140135 7.25889e-21)
(0.0258827 0.00484833 7.14305e-21)
(0.0245183 -0.000651967 0)
(0.0250009 0.00576468 -2.30843e-22)
(0.0228387 -0.00113988 -1.00003e-20)
(0.0238511 0.00679265 0)
(0.0203942 -0.00155597 0)
(0.0223524 0.00782621 -6.45325e-23)
(0.0167988 -0.00176561 -1.60168e-20)
(0.0204971 0.00868582 0)
(0.0121677 -0.00156391 0)
(0.0183997 0.00919872 -1.09113e-20)